 vasp.6.3.1 04May22 (build Nov  5 2022 14:28:48) complex                         
 executed on              LinuxNV date 2025.01.04  03:45:15
 running   10 mpi-ranks, with    1 threads/rank
 distrk:  each k-point on   10 cores,    1 groups
 distr:  one band on NCORE=   1 cores,   10 groups


--------------------------------------------------------------------------------------------------------


 INCAR:
   ALGO = All
   EDIFF = 1e-05
   EDIFFG = -0.01
   ENCUT = 520
   IBRION = 2
   ICHARG = 2
   ISIF = 2
   ISMEAR = 0
   ISPIN = 2
   ISYM = 0
   LMIXTAU = True
   LORBIT = 11
   LPLANE = True
   LREAL = Auto
   LWAVE = False
   MAGMOM = 48*0.06 99*0.06 3*0.06
   NCORE = 48
   NELM = 200
   NELMIN = 4
   NSIM = 4
   NSW = 200
   PREC = Accurate
   SIGMA = 0.05
   IVDW = 11

 POTCAR:    PAW_PBE W_pv 06Nov2007                
 POTCAR:    PAW_PBE Se 06Sep2000                  
 POTCAR:    PAW_PBE O 08Apr2002                   
 POTCAR:    PAW_PBE C 08Apr2002                   
 POTCAR:    PAW_PBE W_pv 06Nov2007                
   VRHFIN =W : 5p6s5d                                                                               
   LEXCH  = PE                                                                                      
   EATOM  =  1261.5581 eV,   92.7219 Ry                                                             
                                                                                                    
   TITEL  = PAW_PBE W_pv 06Nov2007                                                                  
   LULTRA =        F    use ultrasoft PP ?                                                          
   IUNSCR =        1    unscreen: 0-lin 1-nonlin 2-no                                               
   RPACOR =    2.330    partial core radius                                                         
   POMASS =  183.850; ZVAL   =   12.000    mass and valenz                                          
   RCORE  =    2.500    outmost cutoff radius                                                       
   RWIGS  =    2.750; RWIGS  =    1.455    wigner-seitz radius (au A)                               
   ENMAX  =  223.057; ENMIN  =  167.293 eV                                                          
   ICORE  =        3    local potential                                                             
   LCOR   =        T    correct aug charges                                                         
   LPAW   =        T    paw PP                                                                      
   EAUG   =  373.438                                                                                
   DEXC   =    0.000                                                                                
   RMAX   =    2.565    core radius for proj-oper                                                   
   RAUG   =    1.300    factor for augmentation sphere                                              
   RDEP   =    2.539    radius for radial grids                                                     
   RDEPT  =    2.143    core radius for aug-charge                                                  
                                                                                                    
   Atomic configuration                                                                             
   15 entries                                                                                       
     n  l   j            E        occ.                                                              
     1  0  0.50    -69465.5834   2.0000                                                             
     2  0  0.50    -11986.2640   2.0000                                                             
     2  1  1.50    -10479.8613   6.0000                                                             
     3  0  0.50     -2759.0756   2.0000                                                             
     3  1  1.50     -2313.1855   6.0000                                                             
     3  2  2.50     -1801.1183  10.0000                                                             
     4  0  0.50      -567.6789   2.0000                                                             
     4  1  1.50      -421.4692   6.0000                                                             
     4  2  2.50      -236.3471  10.0000                                                             
     4  3  3.50       -31.2665  14.0000                                                             
     5  0  0.50       -77.1084   2.0000                                                             
     5  1  1.50       -41.3856   6.0000                                                             
     5  2  2.50        -3.3185   5.0000                                                             
     6  0  0.50        -5.1438   1.0000                                                             
     5  3  2.50        -1.3606   0.0000                                                             
   Description                                                                                      
     l       E           TYP  RCUT    TYP  RCUT                                                     
     1    -41.3855615     23  2.500                                                                 
     1     -2.7211652     23  2.500                                                                 
     2     -3.3185025     23  2.500                                                                 
     2     -1.5965151     23  2.500                                                                 
     0     -5.1437956     23  2.500                                                                 
     0      4.9117602     23  2.500                                                                 
     3     -1.3605826     23  2.500                                                                 
  local pseudopotential read in
  partial core-charges read in
  partial kinetic energy density read in
  atomic valenz-charges read in
  non local Contribution for L=            1  read in
    real space projection operators read in
  non local Contribution for L=            1  read in
    real space projection operators read in
  non local Contribution for L=            2  read in
    real space projection operators read in
  non local Contribution for L=            2  read in
    real space projection operators read in
  non local Contribution for L=            0  read in
    real space projection operators read in
  non local Contribution for L=            0  read in
    real space projection operators read in
    PAW grid and wavefunctions read in
 
   number of l-projection  operators is LMAX  =            6
   number of lm-projection operators is LMMAX =           18
 
 POTCAR:    PAW_PBE Se 06Sep2000                  
   SHA256 =  eabb916e6b4c819dc065ce039373bc328651da483898f08fb9e49c498452bf12 Se/POTCAR             
   COPYR  = (c) Copyright 06Sep2000 Georg Kresse                                                    
   COPYR  = This file is part of the software VASP. Any use, copying, and all other rights are regul
   COPYR  = If you do not have a valid VASP license, you may not use, copy or distribute this file. 
   VRHFIN =Se: s2p4                                                                                 
   LEXCH  = PE                                                                                      
   EATOM  =   257.1286 eV,   18.8984 Ry                                                             
                                                                                                    
   TITEL  = PAW_PBE Se 06Sep2000                                                                    
   LULTRA =        F    use ultrasoft PP ?                                                          
   IUNSCR =        1    unscreen: 0-lin 1-nonlin 2-no                                               
   RPACOR =    1.900    partial core radius                                                         
   POMASS =   78.960; ZVAL   =    6.000    mass and valenz                                          
   RCORE  =    2.100    outmost cutoff radius                                                       
   RWIGS  =    2.200; RWIGS  =    1.164    wigner-seitz radius (au A)                               
   ENMAX  =  211.555; ENMIN  =  158.666 eV                                                          
   ICORE  =        3    local potential                                                             
   LCOR   =        T    correct aug charges                                                         
   LPAW   =        T    paw PP                                                                      
   EAUG   =  446.842                                                                                
   DEXC   =    0.000                                                                                
   RMAX   =    2.147    core radius for proj-oper                                                   
   RAUG   =    1.300    factor for augmentation sphere                                              
   RDEP   =    2.177    radius for radial grids                                                     
   RDEPT  =    1.928    core radius for aug-charge                                                  
                                                                                                    
   Atomic configuration                                                                             
   10 entries                                                                                       
     n  l   j            E        occ.                                                              
     1  0  0.50    -12503.4787   2.0000                                                             
     2  0  0.50     -1606.9547   2.0000                                                             
     2  1  1.50     -1413.3140   6.0000                                                             
     3  0  0.50      -213.4885   2.0000                                                             
     3  1  1.50      -152.9538   6.0000                                                             
     3  2  2.50       -53.1221  10.0000                                                             
     4  0  0.50       -17.2865   2.0000                                                             
     4  1  0.50        -6.5110   4.0000                                                             
     4  2  2.50        -6.8029   0.0000                                                             
     4  3  2.50        -6.8029   0.0000                                                             
   Description                                                                                      
     l       E           TYP  RCUT    TYP  RCUT                                                     
     0    -17.2865377     23  2.100                                                                 
     0    -15.3094411     23  2.100                                                                 
     1     -6.5110275     23  2.100                                                                 
     1     -0.0695192     23  2.100                                                                 
     2     -6.8029130     23  2.100                                                                 
     3     -1.3605826      7  2.100                                                                 
  local pseudopotential read in
  partial core-charges read in
  partial kinetic energy density read in
  atomic valenz-charges read in
  non local Contribution for L=            0  read in
    real space projection operators read in
  non local Contribution for L=            0  read in
    real space projection operators read in
  non local Contribution for L=            1  read in
    real space projection operators read in
  non local Contribution for L=            1  read in
    real space projection operators read in
  non local Contribution for L=            2  read in
    real space projection operators read in
    PAW grid and wavefunctions read in
 
   number of l-projection  operators is LMAX  =            5
   number of lm-projection operators is LMMAX =           13
 
 POTCAR:    PAW_PBE O 08Apr2002                   
   SHA256 =  818f92134a0a090dccd8ba1447fa70422a3b330e708bb4f08108d8ae51209ddf O/POTCAR              
   COPYR  = (c) Copyright 08Apr2002 Georg Kresse                                                    
   COPYR  = This file is part of the software VASP. Any use, copying, and all other rights are regul
   COPYR  = If you do not have a valid VASP license, you may not use, copy or distribute this file. 
   VRHFIN =O: s2p4                                                                                  
   LEXCH  = PE                                                                                      
   EATOM  =   432.3788 eV,   31.7789 Ry                                                             
                                                                                                    
   TITEL  = PAW_PBE O 08Apr2002                                                                     
   LULTRA =        F    use ultrasoft PP ?                                                          
   IUNSCR =        1    unscreen: 0-lin 1-nonlin 2-no                                               
   RPACOR =    1.200    partial core radius                                                         
   POMASS =   16.000; ZVAL   =    6.000    mass and valenz                                          
   RCORE  =    1.520    outmost cutoff radius                                                       
   RWIGS  =    1.550; RWIGS  =    0.820    wigner-seitz radius (au A)                               
   ENMAX  =  400.000; ENMIN  =  300.000 eV                                                          
   ICORE  =        2    local potential                                                             
   LCOR   =        T    correct aug charges                                                         
   LPAW   =        T    paw PP                                                                      
   EAUG   =  605.392                                                                                
   DEXC   =    0.000                                                                                
   RMAX   =    1.553    core radius for proj-oper                                                   
   RAUG   =    1.300    factor for augmentation sphere                                              
   RDEP   =    1.550    radius for radial grids                                                     
   RDEPT  =    1.329    core radius for aug-charge                                                  
                                                                                                    
   Atomic configuration                                                                             
    4 entries                                                                                       
     n  l   j            E        occ.                                                              
     1  0  0.50      -514.6923   2.0000                                                             
     2  0  0.50       -23.9615   2.0000                                                             
     2  1  0.50        -9.0305   4.0000                                                             
     3  2  1.50        -9.5241   0.0000                                                             
   Description                                                                                      
     l       E           TYP  RCUT    TYP  RCUT                                                     
     0    -23.9615318     23  1.200                                                                 
     0     -9.5240782     23  1.200                                                                 
     1     -9.0304911     23  1.520                                                                 
     1      8.1634956     23  1.520                                                                 
     2     -9.5240782      7  1.500                                                                 
  local pseudopotential read in
  partial core-charges read in
  partial kinetic energy density read in
  kinetic energy density of atom read in
  atomic valenz-charges read in
  non local Contribution for L=            0  read in
    real space projection operators read in
  non local Contribution for L=            0  read in
    real space projection operators read in
  non local Contribution for L=            1  read in
    real space projection operators read in
  non local Contribution for L=            1  read in
    real space projection operators read in
    PAW grid and wavefunctions read in
 
   number of l-projection  operators is LMAX  =            4
   number of lm-projection operators is LMMAX =            8
 
 POTCAR:    PAW_PBE C 08Apr2002                   
   SHA256 =  253f7b50bb8d59471dbedb8285d89021f4a42ed1a2c5d38a03a736e69125dd95 C/POTCAR              
   COPYR  = (c) Copyright 08Apr2002 Georg Kresse                                                    
   COPYR  = This file is part of the software VASP. Any use, copying, and all other rights are regul
   COPYR  = If you do not have a valid VASP license, you may not use, copy or distribute this file. 
   VRHFIN =C: s2p2                                                                                  
   LEXCH  = PE                                                                                      
   EATOM  =   147.1560 eV,   10.8157 Ry                                                             
                                                                                                    
   TITEL  = PAW_PBE C 08Apr2002                                                                     
   LULTRA =        F    use ultrasoft PP ?                                                          
   IUNSCR =        1    unscreen: 0-lin 1-nonlin 2-no                                               
   RPACOR =    1.200    partial core radius                                                         
   POMASS =   12.011; ZVAL   =    4.000    mass and valenz                                          
   RCORE  =    1.500    outmost cutoff radius                                                       
   RWIGS  =    1.630; RWIGS  =    0.863    wigner-seitz radius (au A)                               
   ENMAX  =  400.000; ENMIN  =  300.000 eV                                                          
   ICORE  =        2    local potential                                                             
   LCOR   =        T    correct aug charges                                                         
   LPAW   =        T    paw PP                                                                      
   EAUG   =  644.873                                                                                
   DEXC   =    0.000                                                                                
   RMAX   =    1.529    core radius for proj-oper                                                   
   RAUG   =    1.300    factor for augmentation sphere                                              
   RDEP   =    1.501    radius for radial grids                                                     
   RDEPT  =    1.300    core radius for aug-charge                                                  
                                                                                                    
   Atomic configuration                                                                             
    4 entries                                                                                       
     n  l   j            E        occ.                                                              
     1  0  0.50      -273.3789   2.0000                                                             
     2  0  0.50       -13.7508   2.0000                                                             
     2  1  0.50        -5.2854   2.0000                                                             
     3  2  1.50        -5.4423   0.0000                                                             
   Description                                                                                      
     l       E           TYP  RCUT    TYP  RCUT                                                     
     0    -13.7508458     23  1.200                                                                 
     0     -8.2022199     23  1.200                                                                 
     1     -5.2854383     23  1.500                                                                 
     1     34.0145650     23  1.500                                                                 
     2     -5.4423304      7  1.500                                                                 
  local pseudopotential read in
  partial core-charges read in
  partial kinetic energy density read in
  atomic valenz-charges read in
  non local Contribution for L=            0  read in
    real space projection operators read in
  non local Contribution for L=            0  read in
    real space projection operators read in
  non local Contribution for L=            1  read in
    real space projection operators read in
  non local Contribution for L=            1  read in
    real space projection operators read in
    PAW grid and wavefunctions read in
 
   number of l-projection  operators is LMAX  =            4
   number of lm-projection operators is LMMAX =            8
 
 Optimization of the real space projectors (new method)

 maximal supplied QI-value         = 15.12
 optimisation between [QCUT,QGAM] = [ 11.64, 23.28] = [ 37.95,151.78] Ry 
 Optimized for a Real-space Cutoff    1.53 Angstroem

   l    n(q)    QCUT    max X(q) W(low)/X(q) W(high)/X(q)  e(spline) 
   1     10    11.641     4.278    0.12E-04    0.15E-04    0.63E-07
   1     10    11.641     5.278    0.15E-04    0.52E-04    0.18E-06
   2     10    11.641    67.938    0.89E-04    0.14E-03    0.15E-06
   2     10    11.641    59.529    0.87E-04    0.14E-03    0.15E-06
   0     11    11.641   103.405    0.25E-04    0.27E-04    0.86E-07
   0     11    11.641    56.752    0.20E-04    0.25E-04    0.80E-07
 Optimization of the real space projectors (new method)

 maximal supplied QI-value         = 17.95
 optimisation between [QCUT,QGAM] = [ 11.67, 23.34] = [ 38.13,152.52] Ry 
 Optimized for a Real-space Cutoff    1.25 Angstroem

   l    n(q)    QCUT    max X(q) W(low)/X(q) W(high)/X(q)  e(spline) 
   0      9    11.669   133.320    0.17E-03    0.44E-04    0.69E-07
   0      9    11.669   111.601    0.18E-03    0.46E-04    0.72E-07
   1      8    11.669    47.222    0.22E-03    0.37E-03    0.10E-06
   1      8    11.669    33.775    0.22E-03    0.36E-03    0.10E-06
   2      8    11.669     3.720    0.19E-03    0.46E-04    0.50E-07
 Optimization of the real space projectors (new method)

 maximal supplied QI-value         = 24.76
 optimisation between [QCUT,QGAM] = [ 11.64, 23.27] = [ 37.91,151.63] Ry 
 Optimized for a Real-space Cutoff    1.14 Angstroem

   l    n(q)    QCUT    max X(q) W(low)/X(q) W(high)/X(q)  e(spline) 
   0      8    11.635    20.381    0.10E-03    0.33E-03    0.24E-06
   0      8    11.635    15.268    0.11E-03    0.35E-03    0.26E-06
   1      7    11.635     5.964    0.24E-03    0.31E-03    0.30E-06
   1      7    11.635     5.382    0.22E-03    0.25E-03    0.26E-06
 Optimization of the real space projectors (new method)

 maximal supplied QI-value         = 25.13
 optimisation between [QCUT,QGAM] = [ 11.56, 23.12] = [ 37.43,149.72] Ry 
 Optimized for a Real-space Cutoff    1.04 Angstroem

   l    n(q)    QCUT    max X(q) W(low)/X(q) W(high)/X(q)  e(spline) 
   0      7    11.561   115.676    0.20E-03    0.60E-03    0.21E-06
   0      7    11.561    87.132    0.20E-03    0.59E-03    0.21E-06
   1      7    11.561     4.429    0.23E-03    0.35E-03    0.15E-06
   1      7    11.561     2.733    0.18E-03    0.25E-03    0.12E-06
  PAW_PBE W_pv 06Nov2007                :
 energy of atom  1       EATOM=-1261.5581
 kinetic energy error for atom=    0.0019 (will be added to EATOM!!)
  PAW_PBE Se 06Sep2000                  :
 energy of atom  2       EATOM= -257.1286
 kinetic energy error for atom=    0.0007 (will be added to EATOM!!)
  PAW_PBE O 08Apr2002                   :
 energy of atom  3       EATOM= -432.3788
 kinetic energy error for atom=    0.0208 (will be added to EATOM!!)
  PAW_PBE C 08Apr2002                   :
 energy of atom  4       EATOM= -147.1560
 kinetic energy error for atom=    0.0071 (will be added to EATOM!!)
 
 
 POSCAR: W48 Se99
  positions in direct lattice
  velocities in cartesian coordinates
 exchange correlation table for  LEXCH =        8
   RHO(1)=    0.500       N(1)  =     2000
   RHO(2)=  100.500       N(2)  =     4000
 


--------------------------------------------------------------------------------------------------------


 ion  position               nearest neighbor table
   1  0.282  0.042  0.497- 107 2.45  49 2.45  93 2.46  69 2.52 116 2.52  37 3.26  13 3.28  28 3.38

   2  0.287  0.273  0.486- 149 2.18 104 2.45 117 2.46  70 2.48  50 2.63  13 2.78  25 3.05  38 3.31

   3  0.282  0.545  0.507- 105 2.38  51 2.44  71 2.49  94 2.53 118 2.54  15 3.21  39 3.21  26 3.37

   4  0.286  0.783  0.498- 106 2.43  72 2.49 119 2.50  95 2.53  52 2.58  15 3.04  27 3.14  16 3.22
                            40 3.26
   5  0.456  0.036  0.499-  53 2.54  96 2.54 120 2.54  73 2.54  64 2.54 111 2.54  37 3.26  17 3.27
                            41 3.28  32 3.28  20 3.29  28 3.32
   6  0.455  0.286  0.498-  61 2.54 108 2.54  74 2.54 121 2.54  97 2.55  54 2.55  25 3.27  18 3.27
                            17 3.29  42 3.30  38 3.31  29 3.32
   7  0.454  0.536  0.499-  98 2.54  55 2.54  75 2.54 122 2.54 109 2.55  62 2.55  39 3.27  19 3.27
                            30 3.29  43 3.29  18 3.29  26 3.33
   8  0.456  0.786  0.500-  63 2.54  56 2.54 110 2.54  99 2.54 123 2.54  76 2.54  20 3.26  40 3.27
                            44 3.30  19 3.30  27 3.30  31 3.31
   9  0.629  0.036  0.502-  68 2.54  57 2.54 100 2.54 115 2.54  77 2.59 124 2.60  45 3.25  36 3.25
                            24 3.27  21 3.27  41 3.30  32 3.30
  10  0.628  0.286  0.501-  65 2.53 112 2.53  58 2.53 101 2.54  78 2.56 125 2.56  29 3.26  42 3.28
                            22 3.29  21 3.30  46 3.45  33 3.46
  11  0.628  0.536  0.501-  59 2.54  66 2.54 102 2.54 113 2.54  79 2.59 126 2.60  34 3.26  47 3.26
                            22 3.27  23 3.27  43 3.29  30 3.30
  12  0.628  0.786  0.502- 103 2.53  60 2.53  67 2.53 114 2.54  80 2.56 127 2.56  44 3.27  31 3.27
                            24 3.29  23 3.30  35 3.45  48 3.46
  13  0.288  0.167  0.495- 104 2.42  81 2.48 128 2.48  93 2.60  49 2.61   2 2.78  25 3.07  37 3.25
                             1 3.28
  14  0.282  0.406  0.497- 150 2.06 148 2.33  50 2.43 129 2.50  82 2.51 105 2.52  38 3.22  26 3.30

  15  0.286  0.667  0.498- 106 2.44 130 2.50  83 2.50  94 2.51  51 2.59   4 3.04  27 3.13   3 3.21
                            39 3.27
  16  0.282  0.906  0.499- 107 2.44  52 2.46  95 2.50  84 2.51 131 2.52   4 3.22  40 3.26  28 3.34

  17  0.456  0.160  0.498- 108 2.54 132 2.54  85 2.54  61 2.54  53 2.54  96 2.55  37 3.26   5 3.27
                            41 3.27  25 3.28   6 3.29  29 3.30
  18  0.454  0.410  0.498-  97 2.54  54 2.54  62 2.54  86 2.55 133 2.55 109 2.55   6 3.27   7 3.29
                            30 3.30  38 3.31  42 3.32  26 3.34
  19  0.455  0.661  0.500- 110 2.54  63 2.54 134 2.54  87 2.54  55 2.54  98 2.55  43 3.27   7 3.27
                            39 3.28   8 3.30  27 3.30  31 3.31
  20  0.456  0.911  0.500-  99 2.54  56 2.54  64 2.54 111 2.54  88 2.54 135 2.54   8 3.26  40 3.27
                            32 3.29   5 3.29  44 3.30  28 3.31
  21  0.628  0.161  0.501- 100 2.54  57 2.54 112 2.54  65 2.55 136 2.59  89 2.59  33 3.22   9 3.27
                            29 3.28  10 3.30  41 3.30  45 3.34
  22  0.628  0.411  0.501- 113 2.54  66 2.54 101 2.54  58 2.54 137 2.59  90 2.59  46 3.22  11 3.27
                            42 3.28  10 3.29  30 3.31  34 3.33
  23  0.628  0.660  0.501- 102 2.54 114 2.54  59 2.54  67 2.54 138 2.58  91 2.59  35 3.22  11 3.27
                            31 3.27  12 3.30  43 3.31  47 3.33
  24  0.629  0.911  0.502- 115 2.54  68 2.54 103 2.54  60 2.54 139 2.58  92 2.59  48 3.22   9 3.27
                            44 3.28  12 3.29  32 3.30  36 3.33
  25  0.370  0.223  0.495- 108 2.54  61 2.55 128 2.55  70 2.56  81 2.56 117 2.57   2 3.05  13 3.07
                            37 3.26   6 3.27  38 3.28  17 3.28
  26  0.366  0.473  0.498-  62 2.55 118 2.55 109 2.55  71 2.55 129 2.56  82 2.56  39 3.30  14 3.30
                            38 3.31   7 3.33  18 3.34   3 3.37
  27  0.369  0.724  0.499- 119 2.54 130 2.54  63 2.55 110 2.55  83 2.55  72 2.55  15 3.13   4 3.14
                            40 3.26  39 3.28   8 3.30  19 3.30
  28  0.368  0.973  0.498-  84 2.54 116 2.54  69 2.54 131 2.54 111 2.54  64 2.55  40 3.28  37 3.29
                            20 3.31   5 3.32  16 3.34   1 3.38
  29  0.542  0.223  0.500- 132 2.54  85 2.54  74 2.55 112 2.55 121 2.55  65 2.55  10 3.26  21 3.28
                            41 3.28  42 3.30  17 3.30   6 3.32
  30  0.541  0.473  0.500-  75 2.54 133 2.54 113 2.54 122 2.54  66 2.54  86 2.54  42 3.27  43 3.27
                             7 3.29  18 3.30  11 3.30  22 3.31
  31  0.542  0.723  0.500- 123 2.54  87 2.54  76 2.54 134 2.54 114 2.55  67 2.55  12 3.27  23 3.27
                            43 3.28  44 3.30   8 3.31  19 3.31
  32  0.542  0.973  0.501- 115 2.54  68 2.54 120 2.54  88 2.54 135 2.54  73 2.54  41 3.27  44 3.28
                             5 3.28  20 3.29   9 3.30  24 3.30
  33  0.716  0.215  0.502- 146 2.44  89 2.48 136 2.49 145 2.56 125 2.63  78 2.63  45 3.14  21 3.22
                            10 3.46
  34  0.714  0.477  0.502- 143 2.50 126 2.51  79 2.53 144 2.58  90 2.58 137 2.60  47 3.11  46 3.13
                            11 3.26  22 3.33
  35  0.716  0.714  0.502- 142 2.44  91 2.48 138 2.49 141 2.57 127 2.63  80 2.63  47 3.13  23 3.22
                            12 3.45
  36  0.715  0.977  0.503- 147 2.50 124 2.51  77 2.53 140 2.58  92 2.58 139 2.60  45 3.11  48 3.14
                             9 3.25  24 3.33
  37  0.370  0.098  0.497-  53 2.53  96 2.53  81 2.56 128 2.57  69 2.57 116 2.57  13 3.25  25 3.26
                             1 3.26  17 3.26   5 3.26  28 3.29
  38  0.367  0.347  0.495-  97 2.55  54 2.55 129 2.55 117 2.58  70 2.58  82 2.60  14 3.22  25 3.28
                            18 3.31   2 3.31  26 3.31   6 3.31
  39  0.369  0.599  0.499-  55 2.54  98 2.54 130 2.56 118 2.57  83 2.57  71 2.57   3 3.21   7 3.27
                            15 3.27  19 3.28  27 3.28  26 3.30
  40  0.370  0.848  0.499-  99 2.54  56 2.54 119 2.56 131 2.56  72 2.57  84 2.57  16 3.26   4 3.26
                            27 3.26  20 3.27   8 3.27  28 3.28
  41  0.542  0.098  0.500- 100 2.54  57 2.54 132 2.54  85 2.54 120 2.54  73 2.54  32 3.27  17 3.27
                             5 3.28  29 3.28   9 3.30  21 3.30
  42  0.542  0.349  0.500- 121 2.54  74 2.54  86 2.54 133 2.54 101 2.55  58 2.55  30 3.27  10 3.28
                            22 3.28  29 3.30   6 3.30  18 3.32
  43  0.541  0.598  0.500- 134 2.54  87 2.54  59 2.54 102 2.54 122 2.54  75 2.54  19 3.27  30 3.27
                            31 3.28   7 3.29  11 3.29  23 3.31
  44  0.543  0.849  0.501- 135 2.54  76 2.54  88 2.54 123 2.54 103 2.55  60 2.55  12 3.27  32 3.28
                            24 3.28  31 3.30   8 3.30  20 3.30
  45  0.715  0.095  0.503- 147 2.50 124 2.51  77 2.53 146 2.58  89 2.59 136 2.60  36 3.11  33 3.14
                             9 3.25  21 3.34
  46  0.716  0.357  0.502- 144 2.44  90 2.48 137 2.49 145 2.56 125 2.63  78 2.63  34 3.13  22 3.22
                            10 3.45
  47  0.715  0.595  0.502- 143 2.50 126 2.51  79 2.53  91 2.58 142 2.58 138 2.60  34 3.11  35 3.13
                            11 3.26  23 3.33
  48  0.716  0.857  0.502- 140 2.44  92 2.48 139 2.49 141 2.56 127 2.63  80 2.63  36 3.14  24 3.22
                            12 3.46
  49  0.254  0.103  0.586-   1 2.45  13 2.61
  50  0.250  0.340  0.571-  14 2.43   2 2.63
  51  0.254  0.606  0.596-   3 2.44  15 2.59
  52  0.254  0.846  0.590-  16 2.46   4 2.58
  53  0.426  0.098  0.592-  37 2.53   5 2.54  17 2.54
  54  0.424  0.348  0.590-  18 2.54  38 2.55   6 2.55
  55  0.426  0.598  0.593-  39 2.54   7 2.54  19 2.54
  56  0.427  0.849  0.593-  20 2.54  40 2.54   8 2.54
  57  0.599  0.098  0.594-  41 2.54   9 2.54  21 2.54
  58  0.599  0.349  0.594-  10 2.53  22 2.54  42 2.55
  59  0.598  0.598  0.594-  11 2.54  43 2.54  23 2.54
  60  0.600  0.848  0.595-  12 2.53  24 2.54  44 2.55
  61  0.426  0.223  0.591-   6 2.54  17 2.54  25 2.55
  62  0.424  0.473  0.591-  18 2.54   7 2.55  26 2.55
  63  0.427  0.724  0.592-  19 2.54   8 2.54  27 2.55
  64  0.426  0.973  0.592-   5 2.54  20 2.54  28 2.55
  65  0.600  0.224  0.594-  10 2.53  21 2.55  29 2.55
  66  0.598  0.473  0.593-  11 2.54  22 2.54  30 2.54
  67  0.600  0.723  0.594-  12 2.53  23 2.54  31 2.55
  68  0.599  0.973  0.595-  32 2.54   9 2.54  24 2.54
  69  0.339  0.036  0.590-   1 2.52  28 2.54  37 2.57
  70  0.337  0.283  0.588-   2 2.48  25 2.56  38 2.58
  71  0.340  0.536  0.594-   3 2.49  26 2.55  39 2.57
  72  0.340  0.786  0.594-   4 2.49  27 2.55  40 2.57
  73  0.512  0.036  0.594-  32 2.54  41 2.54   5 2.54
  74  0.512  0.286  0.592-  42 2.54   6 2.54  29 2.55
  75  0.511  0.535  0.593-  30 2.54   7 2.54  43 2.54
  76  0.513  0.786  0.593-  44 2.54  31 2.54   8 2.54
  77  0.686  0.036  0.600-  45 2.53  36 2.53   9 2.59
  78  0.688  0.286  0.590-  10 2.56  46 2.63  33 2.63
  79  0.685  0.536  0.599-  34 2.53  47 2.53  11 2.59
  80  0.688  0.785  0.591-  12 2.56  35 2.63  48 2.63
  81  0.341  0.161  0.591-  13 2.48  25 2.56  37 2.56
  82  0.337  0.410  0.591-  14 2.51  26 2.56  38 2.60
  83  0.340  0.662  0.594-  15 2.50  27 2.55  39 2.57
  84  0.339  0.911  0.591-  16 2.51  28 2.54  40 2.57
  85  0.513  0.161  0.593-  41 2.54  29 2.54  17 2.54
  86  0.511  0.411  0.592-  30 2.54  42 2.54  18 2.55
  87  0.513  0.661  0.593-  43 2.54  19 2.54  31 2.54
  88  0.513  0.911  0.594-  32 2.54  44 2.54  20 2.54
  89  0.686  0.159  0.598-  33 2.48  45 2.59  21 2.59
  90  0.686  0.413  0.598-  46 2.48  34 2.58  22 2.59
  91  0.686  0.658  0.598-  35 2.48  47 2.58  23 2.59
  92  0.686  0.913  0.599-  48 2.48  36 2.58  24 2.59
  93  0.255  0.102  0.405-   1 2.46  13 2.60
  94  0.251  0.605  0.414-  15 2.51   3 2.53
  95  0.254  0.844  0.407-  16 2.50   4 2.53
  96  0.428  0.098  0.404-  37 2.53   5 2.54  17 2.55
  97  0.426  0.348  0.404-  18 2.54  38 2.55   6 2.55
  98  0.426  0.599  0.406-   7 2.54  39 2.54  19 2.55
  99  0.427  0.848  0.406-  20 2.54  40 2.54   8 2.54
 100  0.600  0.098  0.409-  21 2.54  41 2.54   9 2.54
 101  0.600  0.349  0.407-  10 2.54  22 2.54  42 2.55
 102  0.599  0.598  0.408-  43 2.54  23 2.54  11 2.54
 103  0.601  0.848  0.408-  12 2.53  24 2.54  44 2.55
 104  0.227  0.218  0.491-  13 2.42   2 2.45
 105  0.235  0.478  0.534-   3 2.38  14 2.52
 106  0.228  0.725  0.504-   4 2.43  15 2.44
 107  0.232  0.973  0.497-  16 2.44   1 2.45
 108  0.428  0.223  0.404-   6 2.54  17 2.54  25 2.54
 109  0.425  0.474  0.406-   7 2.55  18 2.55  26 2.55
 110  0.427  0.724  0.407-  19 2.54   8 2.54  27 2.55
 111  0.427  0.973  0.406-   5 2.54  20 2.54  28 2.54
 112  0.600  0.223  0.407-  10 2.53  21 2.54  29 2.55
 113  0.599  0.474  0.408-  22 2.54  30 2.54  11 2.54
 114  0.600  0.723  0.408-  12 2.54  23 2.54  31 2.55
 115  0.600  0.973  0.409-  24 2.54  32 2.54   9 2.54
 116  0.339  0.035  0.405-   1 2.52  28 2.54  37 2.57
 117  0.342  0.284  0.397-   2 2.46  25 2.57  38 2.58
 118  0.336  0.537  0.408-   3 2.54  26 2.55  39 2.57
 119  0.341  0.786  0.404-   4 2.50  27 2.54  40 2.56
 120  0.513  0.036  0.407-  32 2.54  41 2.54   5 2.54
 121  0.514  0.286  0.406-  42 2.54   6 2.54  29 2.55
 122  0.512  0.536  0.406-  30 2.54   7 2.54  43 2.54
 123  0.514  0.786  0.408-  31 2.54  44 2.54   8 2.54
 124  0.687  0.036  0.407-  45 2.51  36 2.51   9 2.60
 125  0.688  0.286  0.413-  10 2.56  46 2.63  33 2.63
 126  0.686  0.536  0.406-  34 2.51  47 2.51  11 2.60
 127  0.689  0.786  0.414-  12 2.56  35 2.63  48 2.63
 128  0.342  0.160  0.400-  13 2.48  25 2.55  37 2.57
 129  0.337  0.411  0.404-  14 2.50  38 2.55  26 2.56
 130  0.341  0.662  0.404-  15 2.50  27 2.54  39 2.56
 131  0.339  0.910  0.406-  16 2.52  28 2.54  40 2.56
 132  0.514  0.161  0.406-  41 2.54  29 2.54  17 2.54
 133  0.512  0.411  0.406-  30 2.54  42 2.54  18 2.55
 134  0.513  0.661  0.407-  43 2.54  19 2.54  31 2.54
 135  0.514  0.911  0.407-  32 2.54  44 2.54  20 2.54
 136  0.687  0.158  0.406-  33 2.49  21 2.59  45 2.60
 137  0.686  0.413  0.405-  46 2.49  22 2.59  34 2.60
 138  0.686  0.658  0.405-  35 2.49  23 2.58  47 2.60
 139  0.687  0.913  0.406-  48 2.49  24 2.58  36 2.60
 140  0.775  0.914  0.498-  48 2.44  36 2.58
 141  0.769  0.786  0.505-  48 2.56  35 2.57
 142  0.774  0.658  0.495-  35 2.44  47 2.58
 143  0.774  0.536  0.515-  47 2.50  34 2.50
 144  0.774  0.414  0.495-  46 2.44  34 2.58
 145  0.769  0.286  0.505-  33 2.56  46 2.56
 146  0.775  0.158  0.498-  33 2.44  45 2.58
 147  0.774  0.036  0.513-  36 2.50  45 2.50
 148  0.237  0.399  0.398- 150 1.26  14 2.33
 149  0.253  0.313  0.400- 150 1.27   2 2.18
 150  0.256  0.360  0.418- 148 1.26 149 1.27  14 2.06
 

IMPORTANT INFORMATION: All symmetrisations will be switched off!
NOSYMM: (Re-)initialisation of all symmetry stuff for point group C_1.


----------------------------------------------------------------------------------------

                                     Primitive cell                                     

  volume of cell :   15708.7018

  direct lattice vectors                    reciprocal lattice vectors
    33.000000000  0.000000000  0.000000000     0.030303030  0.000000000  0.000000000
     0.000000000 26.256000519  0.000000000     0.000000000  0.038086532  0.000000000
     0.000000000  0.000000000 18.129999161     0.000000000  0.000000000  0.055157201

  length of vectors
    33.000000000 26.256000519 18.129999161     0.030303030  0.038086532  0.055157201

  position of ions in fractional coordinates (direct lattice)
     0.281946999  0.042177499  0.496674568
     0.286733473  0.272929267  0.486489836
     0.281685655  0.545064396  0.507157346
     0.285993666  0.782882029  0.497515334
     0.455563201  0.035839480  0.499063058
     0.455167787  0.285773292  0.497807648
     0.454226340  0.535969069  0.499050277
     0.455881740  0.786338243  0.499792208
     0.628503874  0.035815900  0.502343614
     0.627714341  0.286027422  0.500976467
     0.627562216  0.535682648  0.501346019
     0.628174820  0.785665044  0.501542849
     0.287957442  0.167038739  0.494665834
     0.281843326  0.405976202  0.496820870
     0.285669560  0.666954493  0.498287374
     0.282397606  0.905613338  0.499181151
     0.455846762  0.160378386  0.498365292
     0.454131205  0.410487637  0.498257614
     0.455324542  0.660650331  0.499580892
     0.455632214  0.910624128  0.499608031
     0.628440338  0.160515140  0.501470056
     0.627824944  0.411317440  0.500616516
     0.628162651  0.660148452  0.501052748
     0.628685026  0.911150212  0.501832962
     0.369759921  0.222556022  0.495105274
     0.366330598  0.473413928  0.498118239
     0.368889198  0.724106542  0.499114772
     0.368370739  0.973027552  0.498120952
     0.542445800  0.223120994  0.499892550
     0.540578278  0.473312005  0.499748928
     0.542489656  0.723014672  0.500494880
     0.541786927  0.973372701  0.500787106
     0.715902973  0.214700087  0.502273179
     0.714395022  0.476521333  0.502268224
     0.715949884  0.714098815  0.501878989
     0.715210269  0.976751609  0.503418078
     0.370084728  0.098415049  0.496902861
     0.367476479  0.347324974  0.495295210
     0.368962207  0.599144737  0.499498686
     0.369947687  0.848219582  0.498786526
     0.541769652  0.098037452  0.500438130
     0.541836805  0.348712657  0.499578904
     0.540952803  0.597990891  0.500133939
     0.542741693  0.848559573  0.500764591
     0.715084213  0.095057006  0.503357471
     0.715607616  0.357434700  0.501586526
     0.714540606  0.594823473  0.502392966
     0.716246979  0.857049560  0.502498304
     0.254016751  0.103142200  0.585818279
     0.249927988  0.340089238  0.571027444
     0.254316010  0.606316819  0.595626919
     0.253530430  0.845885363  0.589546766
     0.426447348  0.098268850  0.591856301
     0.424353666  0.347762459  0.590175853
     0.426107817  0.598408583  0.593012293
     0.426746857  0.848578523  0.593179702
     0.598772960  0.098396687  0.594361509
     0.599111215  0.348603011  0.593822387
     0.598167525  0.598064216  0.593721574
     0.600058430  0.848203714  0.594876060
     0.426328465  0.223278539  0.590614383
     0.424405634  0.472808723  0.590811070
     0.426648027  0.723616070  0.592356912
     0.425899693  0.973406314  0.591719457
     0.599576019  0.223535400  0.594294988
     0.597848264  0.473205745  0.593393439
     0.599853319  0.722997327  0.594499974
     0.598914521  0.973281496  0.594558998
     0.338515503  0.035917689  0.589650666
     0.336732051  0.283243369  0.587742627
     0.339816763  0.536125139  0.594156654
     0.339966638  0.786287428  0.593696836
     0.512480738  0.035790395  0.593573341
     0.512422112  0.285956436  0.591767595
     0.511436078  0.535484442  0.592904016
     0.513395372  0.785803209  0.593215709
     0.685924096  0.035923193  0.599814941
     0.687778933  0.286205505  0.590134230
     0.685017956  0.535649929  0.598686949
     0.688313221  0.785472559  0.590501086
     0.340950647  0.161115817  0.591446032
     0.337136324  0.410008219  0.591335230
     0.339925022  0.662284705  0.594010480
     0.339092214  0.911145375  0.591476254
     0.512773910  0.160982925  0.592799586
     0.511432997  0.410534332  0.592248903
     0.512652410  0.660817771  0.593250665
     0.512888469  0.910705416  0.593558266
     0.686064147  0.158739932  0.598413001
     0.685542856  0.413280697  0.597526883
     0.685944604  0.658110247  0.597815311
     0.686405166  0.913074351  0.598624631
     0.254774513  0.102002876  0.404850172
     0.251206139  0.605222090  0.413640709
     0.253902567  0.844402338  0.407230766
     0.427627528  0.097740057  0.404320484
     0.426165065  0.348245305  0.404199247
     0.426008464  0.598546126  0.405700057
     0.427342203  0.848480956  0.405604525
     0.599762059  0.097963351  0.408547217
     0.599900511  0.348512545  0.407008639
     0.598834493  0.598078088  0.407914094
     0.600655819  0.848451852  0.407969739
     0.226799455  0.218139171  0.490830173
     0.235309647  0.477887846  0.533750268
     0.228251498  0.725443653  0.504206732
     0.231739263  0.973234542  0.497061092
     0.428233650  0.222742967  0.403774791
     0.424729360  0.473600527  0.405924879
     0.427116904  0.723671068  0.406615571
     0.426599670  0.973017410  0.406170478
     0.600454677  0.223126904  0.407359381
     0.598600923  0.473513824  0.407701905
     0.600359615  0.723203161  0.407630306
     0.599772063  0.973454186  0.408821455
     0.339116108  0.035013955  0.404749438
     0.342107382  0.283933673  0.396711242
     0.335839652  0.537291475  0.407911965
     0.341335741  0.785823559  0.403507095
     0.513473548  0.035508864  0.406695994
     0.513661683  0.285782046  0.406395709
     0.512036724  0.535815699  0.406284311
     0.513926269  0.785959986  0.407505647
     0.687281666  0.035839213  0.406884774
     0.688475308  0.285888526  0.413185431
     0.686433737  0.535750140  0.406077942
     0.688854278  0.785776108  0.413594586
     0.341890302  0.160140161  0.399639111
     0.337490963  0.410826836  0.403582153
     0.340838279  0.662089676  0.404359330
     0.338855166  0.910458777  0.405629801
     0.513953154  0.160595746  0.406398356
     0.512342705  0.410750055  0.406114111
     0.513104885  0.660994465  0.406886378
     0.513649820  0.910695028  0.407213035
     0.686559041  0.158387527  0.405912678
     0.685904030  0.413259457  0.404887963
     0.686140492  0.658280678  0.405215639
     0.686718638  0.913282869  0.406178076
     0.774886510  0.913539794  0.497662693
     0.769008587  0.785509355  0.504697214
     0.774484831  0.657595729  0.495252553
     0.773544264  0.535572975  0.514637280
     0.774265338  0.413724646  0.495041888
     0.768691293  0.286122077  0.504726945
     0.774636432  0.158348725  0.497925388
     0.774277269  0.035985419  0.513365729
     0.236947438  0.399000303  0.398297208
     0.253338286  0.313113892  0.400415137
     0.256404573  0.359845549  0.417791478

  ion indices of the primitive-cell ions
   primitive index   ion index
                 1           1
                 2           2
                 3           3
                 4           4
                 5           5
                 6           6
                 7           7
                 8           8
                 9           9
                10          10
                11          11
                12          12
                13          13
                14          14
                15          15
                16          16
                17          17
                18          18
                19          19
                20          20
                21          21
                22          22
                23          23
                24          24
                25          25
                26          26
                27          27
                28          28
                29          29
                30          30
                31          31
                32          32
                33          33
                34          34
                35          35
                36          36
                37          37
                38          38
                39          39
                40          40
                41          41
                42          42
                43          43
                44          44
                45          45
                46          46
                47          47
                48          48
                49          49
                50          50
                51          51
                52          52
                53          53
                54          54
                55          55
                56          56
                57          57
                58          58
                59          59
                60          60
                61          61
                62          62
                63          63
                64          64
                65          65
                66          66
                67          67
                68          68
                69          69
                70          70
                71          71
                72          72
                73          73
                74          74
                75          75
                76          76
                77          77
                78          78
                79          79
                80          80
                81          81
                82          82
                83          83
                84          84
                85          85
                86          86
                87          87
                88          88
                89          89
                90          90
                91          91
                92          92
                93          93
                94          94
                95          95
                96          96
                97          97
                98          98
                99          99
               100         100
               101         101
               102         102
               103         103
               104         104
               105         105
               106         106
               107         107
               108         108
               109         109
               110         110
               111         111
               112         112
               113         113
               114         114
               115         115
               116         116
               117         117
               118         118
               119         119
               120         120
               121         121
               122         122
               123         123
               124         124
               125         125
               126         126
               127         127
               128         128
               129         129
               130         130
               131         131
               132         132
               133         133
               134         134
               135         135
               136         136
               137         137
               138         138
               139         139
               140         140
               141         141
               142         142
               143         143
               144         144
               145         145
               146         146
               147         147
               148         148
               149         149
               150         150

----------------------------------------------------------------------------------------

 
 
 KPOINTS: KPOINTS file                            

Automatic generation of k-mesh.
 Grid dimensions read from file:
 generate k-points for:    1    1    1

 Generating k-lattice:

  Cartesian coordinates                     Fractional coordinates (reciprocal lattice)
     0.030303030  0.000000000  0.000000000     1.000000000  0.000000000  0.000000000
     0.000000000  0.038086532  0.000000000     0.000000000  1.000000000  0.000000000
     0.000000000  0.000000000  0.055157201     0.000000000  0.000000000  1.000000000

  Length of vectors
     0.030303030  0.038086532  0.055157201

  Shift w.r.t. Gamma in fractional coordinates (k-lattice)
     0.000000000  0.000000000  0.000000000

 
 Subroutine IBZKPT returns following result:
 ===========================================
 
 Found      1 irreducible k-points:
 
 Following reciprocal coordinates:
            Coordinates               Weight
  0.000000  0.000000  0.000000      1.000000
 
 Following cartesian coordinates:
            Coordinates               Weight
  0.000000  0.000000  0.000000      1.000000
 


--------------------------------------------------------------------------------------------------------




 Dimension of arrays:
   k-points           NKPTS =      1   k-points in BZ     NKDIM =      1   number of bands    NBANDS=    720
   number of dos      NEDOS =    301   number of ions     NIONS =    150
   non local maximal  LDIM  =      6   non local SUM 2l+1 LMDIM =     18
   total plane-waves  NPLWV = ******
   max r-space proj   IRMAX =   6650   max aug-charges    IRDMAX=  25124
   dimension x,y,z NGX =   250 NGY =  196 NGZ =  140
   dimension x,y,z NGXF=   500 NGYF=  392 NGZF=  280
   support grid    NGXF=   500 NGYF=  392 NGZF=  280
   ions per type =              48  99   2   1
   NGX,Y,Z   is equivalent  to a cutoff of  12.59, 12.41, 12.84 a.u.
   NGXF,Y,Z  is equivalent  to a cutoff of  25.19, 24.82, 25.68 a.u.

 SYSTEM =  unknown system                          
 POSCAR =  W48 Se99                                

 Startparameter for this run:
   NWRITE =      2    write-flag & timer
   PREC   = accura    normal or accurate (medium, high low for compatibility)
   ISTART =      0    job   : 0-new  1-cont  2-samecut
   ICHARG =      2    charge: 1-file 2-atom 10-const
   ISPIN  =      2    spin polarized calculation?
   LNONCOLLINEAR =      F non collinear calculations
   LSORBIT =      F    spin-orbit coupling
   INIWAV =      1    electr: 0-lowe 1-rand  2-diag
   LASPH  =      F    aspherical Exc in radial PAW
 Electronic Relaxation 1
   ENCUT  =  520.0 eV  38.22 Ry    6.18 a.u.  61.36 48.82 33.71*2*pi/ulx,y,z
   ENINI  =  520.0     initial cutoff
   ENAUG  =  644.9 eV  augmentation charge cutoff
   NELM   =    200;   NELMIN=  4; NELMDL= -5     # of ELM steps 
   EDIFF  = 0.1E-04   stopping-criterion for ELM
   LREAL  =      T    real-space projection
   NLSPLINE    = F    spline interpolate recip. space projectors
   LCOMPAT=      F    compatible to vasp.4.4
   GGA_COMPAT  = T    GGA compatible to vasp.4.4-vasp.4.6
   LMAXPAW     = -100 max onsite density
   LMAXMIX     =    2 max onsite mixed and CHGCAR
   VOSKOWN=      0    Vosko Wilk Nusair interpolation
   ROPT   =   -0.00025  -0.00025  -0.00025  -0.00025
 Ionic relaxation
   EDIFFG = -.1E-01   stopping-criterion for IOM
   NSW    =    200    number of steps for IOM
   NBLOCK =      1;   KBLOCK =    200    inner block; outer block 
   IBRION =      2    ionic relax: 0-MD 1-quasi-New 2-CG
   NFREE  =      1    steps in history (QN), initial steepest desc. (CG)
   ISIF   =      2    stress and relaxation
   IWAVPR =     11    prediction:  0-non 1-charg 2-wave 3-comb
   ISYM   =      0    0-nonsym 1-usesym 2-fastsym
   LCORR  =      T    Harris-Foulkes like correction to forces

   POTIM  = 0.5000    time-step for ionic-motion
   TEIN   =    0.0    initial temperature
   TEBEG  =    0.0;   TEEND  =   0.0 temperature during run
   SMASS  =  -3.00    Nose mass-parameter (am)
   estimated Nose-frequenzy (Omega)   =  0.10E-29 period in steps = 0.13E+47 mass=  -0.249E-25a.u.
   SCALEE = 1.0000    scale energy and forces
   NPACO  =    256;   APACO  = 10.0  distance and # of slots for P.C.
   PSTRESS=    0.0 pullay stress

  Mass of Ions in am
   POMASS = 183.85 78.96 16.00 12.01
  Ionic Valenz
   ZVAL   =  12.00  6.00  6.00  4.00
  Atomic Wigner-Seitz radii
   RWIGS  =  -1.00 -1.00 -1.00 -1.00
  virtual crystal weights 
   VCA    =   1.00  1.00  1.00  1.00
   NELECT =    1186.0000    total number of electrons
   NUPDOWN=      -1.0000    fix difference up-down

 DOS related values:
   EMIN   =  10.00;   EMAX   =-10.00  energy-range for DOS
   EFERMI =   0.00
   ISMEAR =     0;   SIGMA  =   0.05  broadening in eV -4-tet -1-fermi 0-gaus

 Electronic relaxation 2 (details)
   IALGO  =     58    algorithm
   LDIAG  =      T    sub-space diagonalisation (order eigenvalues)
   LSUBROT=      F    optimize rotation matrix (better conditioning)
   TURBO    =      0    0=normal 1=particle mesh
   IRESTART =      0    0=no restart 2=restart with 2 vectors
   NREBOOT  =      0    no. of reboots
   NMIN     =      0    reboot dimension
   EREF     =   0.00    reference energy to select bands
   IMIX   =      4    mixing-type and parameters
     AMIX     =   0.40;   BMIX     =  1.00
     AMIX_MAG =   1.60;   BMIX_MAG =  1.00
     AMIN     =   0.10
     WC   =   100.;   INIMIX=   1;  MIXPRE=   1;  MAXMIX= -45

 Intra band minimization:
   WEIMIN = 0.0010     energy-eigenvalue tresh-hold
   EBREAK =  0.35E-08  absolut break condition
   DEPER  =   0.30     relativ break condition  

   TIME   =   0.40     timestep for ELM

  volume/ion in A,a.u.               =     104.72       706.72
  Fermi-wavevector in a.u.,A,eV,Ry     =   0.691921  1.307540  6.513846  0.478754
  Thomas-Fermi vector in A             =   1.773708
 
 Write flags
   LWAVE        =      F    write WAVECAR
   LDOWNSAMPLE  =      F    k-point downsampling of WAVECAR
   LCHARG       =      T    write CHGCAR
   LVTOT        =      F    write LOCPOT, total local potential
   LVHAR        =      F    write LOCPOT, Hartree potential only
   LELF         =      F    write electronic localiz. function (ELF)
   LORBIT       =     11    0 simple, 1 ext, 2 COOP (PROOUT), +10 PAW based schemes


 Dipole corrections
   LMONO  =      F    monopole corrections only (constant potential shift)
   LDIPOL =      F    correct potential (dipole corrections)
   IDIPOL =      0    1-x, 2-y, 3-z, 4-all directions 
   EPSILON=  1.0000000 bulk dielectric constant

 Exchange correlation treatment:
   GGA     =    --    GGA type
   LEXCH   =     8    internal setting for exchange type
   LIBXC   =     F    Libxc                    
   VOSKOWN =     0    Vosko Wilk Nusair interpolation
   LHFCALC =     F    Hartree Fock is set to
   LHFONE  =     F    Hartree Fock one center treatment
   AEXX    =    0.0000 exact exchange contribution

 Linear response parameters
   LEPSILON=     F    determine dielectric tensor
   LRPA    =     F    only Hartree local field effects (RPA)
   LNABLA  =     F    use nabla operator in PAW spheres
   LVEL    =     F    velocity operator in full k-point grid
   CSHIFT  =0.1000    complex shift for real part using Kramers Kronig
   OMEGAMAX=  -1.0    maximum frequency
   DEG_THRESHOLD= 0.2000000E-02 threshold for treating states as degnerate
   RTIME   =   -0.100 relaxation time in fs
  (WPLASMAI=    0.000 imaginary part of plasma frequency in eV, 0.658/RTIME)
   DFIELD  = 0.0000000 0.0000000 0.0000000 field for delta impulse in time
 
  Optional k-point grid parameters
   LKPOINTS_OPT  =     F    use optional k-point grid
   KPOINTS_OPT_MODE=     1    mode for optional k-point grid
 
 Orbital magnetization related:
   ORBITALMAG=     F  switch on orbital magnetization
   LCHIMAG   =     F  perturbation theory with respect to B field
   DQ        =  0.001000  dq finite difference perturbation B field
   LLRAUG    =     F  two centre corrections for induced B field



--------------------------------------------------------------------------------------------------------


 conjugate gradient relaxation of ions
 charge density and potential will be updated during run
 spin polarized calculation
 Conjugate gradient for all bands (Freysoldt, et al. PRB 79, 241103 (2009))
 preconditioned conjugated gradient                                        
 perform sub-space diagonalisation
    before iterative eigenvector-optimisation
 modified Broyden-mixing scheme, WC =      100.0
 initial mixing is a Kerker type mixing with AMIX =  0.4000 and BMIX =      1.0000
 Hartree-type preconditioning will be used
 using additional bands           127
 real space projection scheme for non local part
 use partial core corrections
 no Harris-corrections to forces 
 use gradient corrections 
 use of overlap-Matrix (Vanderbilt PP)
 Gauss-broadening in eV      SIGMA  =   0.05


--------------------------------------------------------------------------------------------------------


  energy-cutoff  :      520.00
  volume of cell :    15708.70
      direct lattice vectors                 reciprocal lattice vectors
    33.000000000  0.000000000  0.000000000     0.030303030  0.000000000  0.000000000
     0.000000000 26.256000519  0.000000000     0.000000000  0.038086532  0.000000000
     0.000000000  0.000000000 18.129999161     0.000000000  0.000000000  0.055157201

  length of vectors
    33.000000000 26.256000519 18.129999161     0.030303030  0.038086532  0.055157201


 
 k-points in units of 2pi/SCALE and weight: KPOINTS file                            
   0.00000000  0.00000000  0.00000000       1.000
 
 k-points in reciprocal lattice and weights: KPOINTS file                            
   0.00000000  0.00000000  0.00000000       1.000
 
 position of ions in fractional coordinates (direct lattice) 
   0.28194700  0.04217750  0.49667457
   0.28673347  0.27292927  0.48648984
   0.28168566  0.54506440  0.50715735
   0.28599367  0.78288203  0.49751533
   0.45556320  0.03583948  0.49906306
   0.45516779  0.28577329  0.49780765
   0.45422634  0.53596907  0.49905028
   0.45588174  0.78633824  0.49979221
   0.62850387  0.03581590  0.50234361
   0.62771434  0.28602742  0.50097647
   0.62756222  0.53568265  0.50134602
   0.62817482  0.78566504  0.50154285
   0.28795744  0.16703874  0.49466583
   0.28184333  0.40597620  0.49682087
   0.28566956  0.66695449  0.49828737
   0.28239761  0.90561334  0.49918115
   0.45584676  0.16037839  0.49836529
   0.45413121  0.41048764  0.49825761
   0.45532454  0.66065033  0.49958089
   0.45563221  0.91062413  0.49960803
   0.62844034  0.16051514  0.50147006
   0.62782494  0.41131744  0.50061652
   0.62816265  0.66014845  0.50105275
   0.62868503  0.91115021  0.50183296
   0.36975992  0.22255602  0.49510527
   0.36633060  0.47341393  0.49811824
   0.36888920  0.72410654  0.49911477
   0.36837074  0.97302755  0.49812095
   0.54244580  0.22312099  0.49989255
   0.54057828  0.47331201  0.49974893
   0.54248966  0.72301467  0.50049488
   0.54178693  0.97337270  0.50078711
   0.71590297  0.21470009  0.50227318
   0.71439502  0.47652133  0.50226822
   0.71594988  0.71409882  0.50187899
   0.71521027  0.97675161  0.50341808
   0.37008473  0.09841505  0.49690286
   0.36747648  0.34732497  0.49529521
   0.36896221  0.59914474  0.49949869
   0.36994769  0.84821958  0.49878653
   0.54176965  0.09803745  0.50043813
   0.54183680  0.34871266  0.49957890
   0.54095280  0.59799089  0.50013394
   0.54274169  0.84855957  0.50076459
   0.71508421  0.09505701  0.50335747
   0.71560762  0.35743470  0.50158653
   0.71454061  0.59482347  0.50239297
   0.71624698  0.85704956  0.50249830
   0.25401675  0.10314220  0.58581828
   0.24992799  0.34008924  0.57102744
   0.25431601  0.60631682  0.59562692
   0.25353043  0.84588536  0.58954677
   0.42644735  0.09826885  0.59185630
   0.42435367  0.34776246  0.59017585
   0.42610782  0.59840858  0.59301229
   0.42674686  0.84857852  0.59317970
   0.59877296  0.09839669  0.59436151
   0.59911122  0.34860301  0.59382239
   0.59816752  0.59806422  0.59372157
   0.60005843  0.84820371  0.59487606
   0.42632847  0.22327854  0.59061438
   0.42440563  0.47280872  0.59081107
   0.42664803  0.72361607  0.59235691
   0.42589969  0.97340631  0.59171946
   0.59957602  0.22353540  0.59429499
   0.59784826  0.47320575  0.59339344
   0.59985332  0.72299733  0.59449997
   0.59891452  0.97328150  0.59455900
   0.33851550  0.03591769  0.58965067
   0.33673205  0.28324337  0.58774263
   0.33981676  0.53612514  0.59415665
   0.33996664  0.78628743  0.59369684
   0.51248074  0.03579039  0.59357334
   0.51242211  0.28595644  0.59176759
   0.51143608  0.53548444  0.59290402
   0.51339537  0.78580321  0.59321571
   0.68592410  0.03592319  0.59981494
   0.68777893  0.28620550  0.59013423
   0.68501796  0.53564993  0.59868695
   0.68831322  0.78547256  0.59050109
   0.34095065  0.16111582  0.59144603
   0.33713632  0.41000822  0.59133523
   0.33992502  0.66228471  0.59401048
   0.33909221  0.91114538  0.59147625
   0.51277391  0.16098292  0.59279959
   0.51143300  0.41053433  0.59224890
   0.51265241  0.66081777  0.59325067
   0.51288847  0.91070542  0.59355827
   0.68606415  0.15873993  0.59841300
   0.68554286  0.41328070  0.59752688
   0.68594460  0.65811025  0.59781531
   0.68640517  0.91307435  0.59862463
   0.25477451  0.10200288  0.40485017
   0.25120614  0.60522209  0.41364071
   0.25390257  0.84440234  0.40723077
   0.42762753  0.09774006  0.40432048
   0.42616507  0.34824530  0.40419925
   0.42600846  0.59854613  0.40570006
   0.42734220  0.84848096  0.40560453
   0.59976206  0.09796335  0.40854722
   0.59990051  0.34851255  0.40700864
   0.59883449  0.59807809  0.40791409
   0.60065582  0.84845185  0.40796974
   0.22679945  0.21813917  0.49083017
   0.23530965  0.47788785  0.53375027
   0.22825150  0.72544365  0.50420673
   0.23173926  0.97323454  0.49706109
   0.42823365  0.22274297  0.40377479
   0.42472936  0.47360053  0.40592488
   0.42711690  0.72367107  0.40661557
   0.42659967  0.97301741  0.40617048
   0.60045468  0.22312690  0.40735938
   0.59860092  0.47351382  0.40770191
   0.60035961  0.72320316  0.40763031
   0.59977206  0.97345419  0.40882145
   0.33911611  0.03501395  0.40474944
   0.34210738  0.28393367  0.39671124
   0.33583965  0.53729147  0.40791197
   0.34133574  0.78582356  0.40350710
   0.51347355  0.03550886  0.40669599
   0.51366168  0.28578205  0.40639571
   0.51203672  0.53581570  0.40628431
   0.51392627  0.78595999  0.40750565
   0.68728167  0.03583921  0.40688477
   0.68847531  0.28588853  0.41318543
   0.68643374  0.53575014  0.40607794
   0.68885428  0.78577611  0.41359459
   0.34189030  0.16014016  0.39963911
   0.33749096  0.41082684  0.40358215
   0.34083828  0.66208968  0.40435933
   0.33885517  0.91045878  0.40562980
   0.51395315  0.16059575  0.40639836
   0.51234271  0.41075006  0.40611411
   0.51310488  0.66099447  0.40688638
   0.51364982  0.91069503  0.40721304
   0.68655904  0.15838753  0.40591268
   0.68590403  0.41325946  0.40488796
   0.68614049  0.65828068  0.40521564
   0.68671864  0.91328287  0.40617808
   0.77488651  0.91353979  0.49766269
   0.76900859  0.78550936  0.50469721
   0.77448483  0.65759573  0.49525255
   0.77354426  0.53557297  0.51463728
   0.77426534  0.41372465  0.49504189
   0.76869129  0.28612208  0.50472695
   0.77463643  0.15834873  0.49792539
   0.77427727  0.03598542  0.51336573
   0.23694744  0.39900030  0.39829721
   0.25333829  0.31311389  0.40041514
   0.25640457  0.35984555  0.41779148
 
 position of ions in cartesian coordinates  (Angst):
   9.30425098  1.10741244  9.00470950
   9.46220461  7.16603097  8.82006032
   9.29562662 14.31121106  9.19476226
   9.43779099 20.55535097  9.01995259
  15.03358562  0.94100140  9.04801282
  15.02053698  7.50326370  9.02525224
  14.98946922 14.07240416  9.04778110
  15.04409742 20.64609730  9.06123231
  20.74062783  0.94038229  9.10748930
  20.71457324  7.50993614  9.08270293
  20.70955313 14.06488388  9.08940291
  20.72976908 20.62842179  9.09297142
   9.50259559  4.38576921  8.96829116
   9.30082977 10.65931137  9.00736196
   9.42709547 17.51155751  9.03394967
   9.31912098 23.77778426  9.05015385
  15.04294313  4.21089498  9.03536233
  14.98632978 10.77776361  9.03341013
  15.02570990 17.34603542  9.05740116
  15.03586306 23.90934758  9.05789317
  20.73853114  4.21448560  9.09165169
  20.71822314 10.79955092  9.07617701
  20.72936748 17.33285809  9.08408591
  20.74660587 23.92316044  9.09823117
  12.20207739  5.84343102  8.97625821
  12.08890973 12.42995635  9.03088325
  12.17334354 19.01214174  9.04895040
  12.15623440 25.54781192  9.03093245
  17.90071141  5.85826495  9.06305150
  17.83908319 12.42728026  9.06044764
  17.90215866 18.98347361  9.07397175
  17.87896860 25.55687414  9.07926981
  23.62479809  5.63716561  9.10621232
  23.57503573 12.51154438  9.10612248
  23.62634618 18.74937887  9.09906564
  23.60193887 25.64559074  9.12696933
  12.21279602  2.58398558  9.00884846
  12.12672380  9.11936469  8.97970174
  12.17575283 15.73114454  9.05591076
  12.20827368 22.27085378  9.04299929
  17.87839852  2.57407139  9.07294287
  17.88061456  9.15579972  9.05736511
  17.85144251 15.70084915  9.06742789
  17.91047585 22.27978059  9.07886161
  23.59777902  2.49581680  9.12587052
  23.61505132  9.38480566  9.09376329
  23.57983999 15.61768542  9.10838405
  23.63615031 22.50269369  9.11029383
   8.38255279  2.70810167 10.62088492
   8.24762361  8.92938322 10.35272708
   8.39242833 15.91945472 10.79871553
   8.36650418 22.20956653 10.68848238
  14.07276249  2.58014699 10.73035424
  14.00367098  9.13085131 10.69988772
  14.06155795 15.71181606 10.75131238
  14.08264629 22.28027814 10.75434749
  19.75950768  2.58350347 10.77577365
  19.77067011  9.15292085 10.76599938
  19.73952831 15.70277436 10.76417164
  19.80192818 22.27043715 10.78510246
  14.06883935  5.86240143 10.70783827
  14.00538593 12.41406608 10.71140421
  14.07938489 18.99926391 10.73943031
  14.05468985 25.55775669 10.72787327
  19.78600862  5.86914558 10.77456763
  19.72899273 12.42449029 10.75822256
  19.79515951 18.98301819 10.77828403
  19.76417919 25.55447946 10.77935414
  11.17101159  0.94305485 10.69036608
  11.11215769  7.43683803 10.65577333
  11.21395318 14.07650192 10.77205964
  11.21889906 20.64476311 10.76372314
  16.91186434  0.93971262 10.76148417
  16.90992970  7.50807233 10.72874600
  16.87739057 14.05967980 10.74934931
  16.94204728 20.63204945 10.75500031
  22.63549518  0.94319938 10.87464438
  22.69670479  7.51461187 10.69913310
  22.60559255 14.06402481 10.85419389
  22.71433629 20.62336793 10.70578419
  11.25137135  4.23025698 10.72291607
  11.12549868 10.76517602 10.72090723
  11.21752574 17.38894757 10.76940951
  11.19004306 23.92303345 10.72346399
  16.92153902  4.22676776 10.74745599
  16.87728891 10.77898962 10.73747212
  16.91752952 17.35043174 10.75563406
  16.92531947 23.91148186 10.76121086
  22.64011685  4.16787573 10.84922721
  22.62291424 10.85109820 10.83316189
  22.63617194 17.27934299 10.83839108
  22.65137049 23.97368064 10.85306406
   8.40755894  2.67818757  7.33993329
   8.28980260 15.89071152  7.49930570
   8.37878470 22.17062823  7.38309345
  14.11170841  2.56626297  7.33033003
  14.06344716  9.14352890  7.32813202
  14.05827932 15.71542739  7.35534170
  14.10229272 22.27771642  7.35360970
  19.79214795  2.57212579  7.40696070
  19.79671687  9.15054557  7.37906629
  19.76153827 15.70313859  7.39548218
  19.82164201 22.27695226  7.39649102
   7.48438200  5.72746219  8.89875063
   7.76521834 12.54742352  9.67689191
   7.53229943 19.04724893  9.14126763
   7.64739567 25.55324664  9.01171718
  14.13171044  5.84833946  7.32043661
  14.01606888 12.43485568  7.35941772
  14.09485784 19.00070795  7.37193995
  14.07778910 25.54754561  7.36387043
  19.81500433  5.85842010  7.38542524
  19.75383047 12.43257920  7.39163520
  19.81186729 18.98842258  7.39033711
  19.79247807 25.55901362  7.41193263
  11.19083156  0.91932642  7.33810698
  11.28954361  7.45496267  7.19237448
  11.08270851 14.10712523  7.39544358
  11.26407947 20.63258378  7.31558330
  16.94462710  0.93232076  7.37339803
  16.95083554  7.50349354  7.36795387
  16.89721190 14.06837727  7.36593421
  16.95956689 20.63616580  7.38807705
  22.68029498  0.94099438  7.37682061
  22.71968516  7.50628929  7.49105152
  22.65231333 14.06665595  7.36219274
  22.73219117 20.63133791  7.49846950
  11.28237997  4.20464015  7.24545675
  11.13720178 10.78666961  7.31694409
  11.24766320 17.38382687  7.33103431
  11.18222046 23.90500611  7.35406795
  16.96045407  4.21660200  7.36800185
  16.90730927 10.78465366  7.36284850
  16.93246119 17.35507102  7.37684970
  16.95044406 23.91120912  7.38277199
  22.65644834  4.15862300  7.35919651
  22.63483300 10.85054051  7.34061842
  22.64263623 17.28381782  7.34655919
  22.66171505 23.97915547  7.36400817
  25.57125483 23.98590129  9.02262422
  25.37728336 20.62433404  9.15016007
  25.55799944 17.26583380  8.97892837
  25.52696072 14.06200431  9.33037345
  25.55075617 10.86275451  8.97510902
  25.36681267  7.51242140  9.15069910
  25.56300227  4.15760421  9.02738687
  25.55114986  0.94483319  9.30732024
   7.81926545 10.47615216  7.22112805
   8.36016345  8.22111852  7.25952610
   8.46135091  9.44810491  7.57455914
 


--------------------------------------------------------------------------------------------------------


 k-point   1 :   0.0000 0.0000 0.0000  plane waves:  423045

 maximum and minimum number of plane-waves per node :    423045   423045

 maximum number of plane-waves:    423045
 maximum index in each direction: 
   IXMAX=   61   IYMAX=   48   IZMAX=   33
   IXMIN=  -61   IYMIN=  -48   IZMIN=  -33


 serial   3D FFT for wavefunctions
 parallel 3D FFT for charge:
    minimum data exchange during FFTs selected (reduces bandwidth)


 total amount of memory used by VASP MPI-rank0  4372499. kBytes
=======================================================================

   base      :      30000. kBytes
   nonlr-proj:     105171. kBytes
   fftplans  :     213060. kBytes
   grid      :    1080416. kBytes
   one-center:       4665. kBytes
   wavefun   :    2939187. kBytes
 
     INWAV:  cpu time      0.0001: real time      0.0003
 Broyden mixing: mesh for mixing (old mesh)
   NGX =123   NGY = 97   NGZ = 67
  (NGX  =500   NGY  =392   NGZ  =280)
  gives a total of 799377 points

 initial charge density was supplied:
 charge density of overlapping atoms calculated
 number of electron    1186.0000000 magnetization       9.0000000
 keeping initial charge density in first step


--------------------------------------------------------------------------------------------------------


 Maximum index for non-local projection operator          6425
 Maximum index for augmentation-charges          2480 (set IRDMAX)


--------------------------------------------------------------------------------------------------------


 First call to EWALD:  gamma=   0.071
 Maximum number of real-space cells 2x 3x 4
 Maximum number of reciprocal cells 3x 3x 2

    FEWALD:  cpu time      0.0363: real time      0.0364


--------------------------------------- Iteration      1(   1)  ---------------------------------------


    POTLOK:  cpu time      0.7649: real time      0.6440
    SETDIJ:  cpu time      0.1698: real time      0.1701
    TRIAL :  cpu time     13.3462: real time     10.5029
    CORREC:  cpu time      0.0098: real time      0.0098
    --------------------------------------------
      LOOP:  cpu time     15.0844: real time     12.1207

 eigenvalue-minimisations  :  3480
 total energy-change (2. order) : 0.9696786E+04  (-0.4814621E+05)
 number of electron    1186.0000000 magnetization       9.0000000
 augmentation part     1186.0000000 magnetization       9.0000000

 Free energy of the ion-electron system (eV)
  ---------------------------------------------------
  alpha Z        PSCENC =       980.60738332
  Ewald energy   TEWEN  =    285831.47085380
  -Hartree energ DENC   =   -358827.43465694
  -exchange      EXHF   =         0.00000000
  -V(xc)+E(xc)   XCENC  =      1703.21615410
  PAW double counting   =     69789.12120929   -67839.61918322
  entropy T*S    EENTRO =        -0.11025574
  eigenvalues    EBANDS =     -8962.68445840
  atomic energy  EATOM  =     87022.21849943
  ---------------------------------------------------
  free energy    TOTEN  =      9696.78554564 eV

  energy without entropy =     9696.89580138  energy(sigma->0) =     9696.84067351


--------------------------------------------------------------------------------------------------------




--------------------------------------- Iteration      1(   2)  ---------------------------------------


    TRIAL :  cpu time     14.2876: real time     11.2350
    CORREC:  cpu time      0.0072: real time      0.0072
    --------------------------------------------
      LOOP:  cpu time     14.2959: real time     11.2435

 eigenvalue-minimisations  :  4200
 total energy-change (2. order) :-0.9160720E+04  (-0.8863325E+04)
 number of electron    1186.0000000 magnetization       9.0000000
 augmentation part     1186.0000000 magnetization       9.0000000

 Free energy of the ion-electron system (eV)
  ---------------------------------------------------
  alpha Z        PSCENC =       980.60738332
  Ewald energy   TEWEN  =    285831.47085380
  -Hartree energ DENC   =   -358827.43465694
  -exchange      EXHF   =         0.00000000
  -V(xc)+E(xc)   XCENC  =      1703.21615410
  PAW double counting   =     69789.12120929   -67839.61918322
  entropy T*S    EENTRO =        -0.00329542
  eigenvalues    EBANDS =    -18123.51188309
  atomic energy  EATOM  =     87022.21849943
  ---------------------------------------------------
  free energy    TOTEN  =       536.06508127 eV

  energy without entropy =      536.06837669  energy(sigma->0) =      536.06672898


--------------------------------------------------------------------------------------------------------




--------------------------------------- Iteration      1(   3)  ---------------------------------------


    TRIAL :  cpu time     12.3889: real time      9.7540
    CORREC:  cpu time      0.0050: real time      0.0050
    --------------------------------------------
      LOOP:  cpu time     12.3949: real time      9.7603

 eigenvalue-minimisations  :  3400
 total energy-change (2. order) :-0.1576378E+04  (-0.1566556E+04)
 number of electron    1186.0000000 magnetization       9.0000000
 augmentation part     1186.0000000 magnetization       9.0000000

 Free energy of the ion-electron system (eV)
  ---------------------------------------------------
  alpha Z        PSCENC =       980.60738332
  Ewald energy   TEWEN  =    285831.47085380
  -Hartree energ DENC   =   -358827.43465694
  -exchange      EXHF   =         0.00000000
  -V(xc)+E(xc)   XCENC  =      1703.21615410
  PAW double counting   =     69789.12120929   -67839.61918322
  entropy T*S    EENTRO =        -0.00000002
  eigenvalues    EBANDS =    -19699.89281016
  atomic energy  EATOM  =     87022.21849943
  ---------------------------------------------------
  free energy    TOTEN  =     -1040.31255041 eV

  energy without entropy =    -1040.31255038  energy(sigma->0) =    -1040.31255040


--------------------------------------------------------------------------------------------------------




--------------------------------------- Iteration      1(   4)  ---------------------------------------


    TRIAL :  cpu time     12.4648: real time      9.6134
    CORREC:  cpu time      0.0054: real time      0.0054
    --------------------------------------------
      LOOP:  cpu time     12.4714: real time      9.6203

 eigenvalue-minimisations  :  3430
 total energy-change (2. order) :-0.6846081E+02  (-0.6761981E+02)
 number of electron    1186.0000000 magnetization       9.0000000
 augmentation part     1186.0000000 magnetization       9.0000000

 Free energy of the ion-electron system (eV)
  ---------------------------------------------------
  alpha Z        PSCENC =       980.60738332
  Ewald energy   TEWEN  =    285831.47085380
  -Hartree energ DENC   =   -358827.43465694
  -exchange      EXHF   =         0.00000000
  -V(xc)+E(xc)   XCENC  =      1703.21615410
  PAW double counting   =     69789.12120929   -67839.61918322
  entropy T*S    EENTRO =        -0.00000016
  eigenvalues    EBANDS =    -19768.35361560
  atomic energy  EATOM  =     87022.21849943
  ---------------------------------------------------
  free energy    TOTEN  =     -1108.77335598 eV

  energy without entropy =    -1108.77335582  energy(sigma->0) =    -1108.77335590


--------------------------------------------------------------------------------------------------------




--------------------------------------- Iteration      1(   5)  ---------------------------------------


    TRIAL :  cpu time     13.7928: real time     10.8102
    CORREC:  cpu time      0.0061: real time      0.0061
    CHARGE:  cpu time      4.5682: real time      4.5765
    --------------------------------------------
      LOOP:  cpu time     18.3683: real time     15.3942

 eigenvalue-minimisations  :  4140
 total energy-change (2. order) :-0.2825542E+01  (-0.2809102E+01)
 number of electron    1185.9999967 magnetization       0.0000011
 augmentation part       71.7927648 magnetization      -0.0302875

 Free energy of the ion-electron system (eV)
  ---------------------------------------------------
  alpha Z        PSCENC =       980.60738332
  Ewald energy   TEWEN  =    285831.47085380
  -Hartree energ DENC   =   -358827.43465694
  -exchange      EXHF   =         0.00000000
  -V(xc)+E(xc)   XCENC  =      1703.21615410
  PAW double counting   =     69789.12120929   -67839.61918322
[...]
      7.48428      5.72728      8.89872        -0.002554     -0.000642     -0.000783
      7.76538     12.54742      9.67687        -0.000923     -0.002741      0.001421
      7.53222     19.04715      9.14129         0.000135      0.000435      0.000217
      7.64734     25.55334      9.01137         0.000644      0.000122     -0.003608
     14.13166      5.84857      7.32050        -0.001076      0.002076      0.000703
     14.01597     12.43481      7.35943        -0.001182     -0.000624      0.000498
     14.09482     19.00066      7.37191         0.000723     -0.000347      0.000039
     14.07786     25.54755      7.36380         0.000528      0.001230     -0.001471
     19.81499      5.85855      7.38539        -0.000489     -0.000018      0.000925
     19.75391     12.43257      7.39166         0.000157      0.000796     -0.000159
     19.81189     18.98835      7.39028         0.000100      0.000564     -0.000366
     19.79238     25.55901      7.41184         0.000901     -0.000250     -0.000593
     11.19082      0.91942      7.33801         0.001771      0.001278     -0.003909
     11.28955      7.45503      7.19245        -0.001103      0.000793      0.003213
     11.08258     14.10713      7.39541        -0.002540     -0.002058      0.001982
     11.26419     20.63244      7.31551        -0.000756     -0.000558     -0.000344
     16.94470      0.93232      7.37348         0.000020      0.000909     -0.000542
     16.95090      7.50352      7.36801        -0.000539     -0.000440      0.000712
     16.89716     14.06829      7.36600         0.000464     -0.000096      0.000904
     16.95958     20.63616      7.38794         0.001036      0.000006     -0.000617
     22.68024      0.94101      7.37669        -0.000269     -0.000348      0.001299
     22.71963      7.50629      7.49107        -0.000627      0.000596     -0.000292
     22.65254     14.06662      7.36237         0.000389      0.000223     -0.002232
     22.73224     20.63125      7.49845         0.000301     -0.002268      0.000007
     11.28233      4.20465      7.24545        -0.000809      0.001340      0.001454
     11.13709     10.78670      7.31724        -0.002102      0.000057      0.006314
     11.24763     17.38374      7.33116        -0.000888      0.000030      0.000554
     11.18242     23.90487      7.35401         0.000404     -0.002505     -0.002204
     16.96043      4.21665      7.36802        -0.000341      0.000351      0.000845
     16.90734     10.78466      7.36283         0.000052     -0.000148      0.000889
     16.93241     17.35506      7.37676        -0.000262     -0.000663     -0.000088
     16.95042     23.91122      7.38271         0.000774      0.000142     -0.001089
     22.65652      4.15872      7.35932         0.000339      0.000385      0.000696
     22.63486     10.85063      7.34079        -0.000450      0.000923     -0.000471
     22.64270     17.28378      7.34665         0.000097     -0.000683     -0.001417
     22.66176     23.97907      7.36396        -0.000241     -0.000668      0.000281
     25.57121     23.98588      9.02245        -0.002267     -0.001806     -0.001753
     25.37739     20.62431      9.15016        -0.000084     -0.000499      0.000221
     25.55783     17.26575      8.97890         0.000475     -0.000725     -0.000073
     25.52692     14.06201      9.33029         0.001595      0.001191     -0.000350
     25.55066     10.86275      8.97508         0.001538     -0.000016     -0.000438
     25.36686      7.51241      9.15075         0.001508      0.000429      0.000191
     25.56304      4.15762      9.02745         0.000740      0.000081      0.000343
     25.55125      0.94489      9.30748         0.000084     -0.000720      0.001340
      7.81935     10.47621      7.22103         0.003743      0.000590     -0.001159
      8.36021      8.22117      7.25932         0.001359     -0.001820     -0.004977
      8.46125      9.44821      7.57450         0.002513      0.004492      0.005301
 -----------------------------------------------------------------------------------
    total drift:                               -0.054717      0.012240      0.026871


--------------------------------------------------------------------------------------------------------



  FREE ENERGIE OF THE ION-ELECTRON SYSTEM (eV)
  ---------------------------------------------------
  free  energy   TOTEN  =     -1080.11130616 eV

  energy  without entropy=    -1080.10890884  energy(sigma->0) =    -1080.11010750
 
 d Force = 0.7799384E-05[ 0.238E-05, 0.132E-04]  d Energy = 0.6677396E-05 0.112E-05
 d Force = 0.3065461E-01[ 0.307E-01, 0.306E-01]  d Ewald  = 0.3065432E-01 0.283E-06


--------------------------------------------------------------------------------------------------------


    POTLOK:  cpu time      1.0173: real time      0.7664


--------------------------------------------------------------------------------------------------------


 Conjugate gradient step on ions:
 trial-energy change:   -0.000007  1 .order   -0.000008   -0.000013   -0.000002
  (g-gl).g = 0.565E-04      g.g   = 0.454E-04  gl.gl    = 0.468E-04
 g(Force)  = 0.454E-04   g(Stress)= 0.000E+00 ortho     =-0.240E-05
 gamma     =   1.20512
 trial     =   0.31129
 opt step  =   0.37974  (harmonic =   0.37974) maximal distance =0.00035214
 next E    = -1080.111308   (d E  =  -0.00001)


--------------------------------------------------------------------------------------------------------


  
 reached required accuracy - stopping structural energy minimisation
     LOOP+:  cpu time    120.0776: real time    105.0827
    4ORBIT:  cpu time      0.0000: real time      0.0000



 total charge

# of ion       s       p       d       tot
------------------------------------------
    1        0.375   6.263   3.281   9.919
    2        0.368   6.268   3.300   9.936
    3        0.379   6.276   3.284   9.938
    4        0.365   6.274   3.293   9.932
    5        0.332   6.276   3.368   9.976
    6        0.332   6.274   3.364   9.970
    7        0.332   6.275   3.364   9.971
    8        0.332   6.275   3.365   9.972
    9        0.324   6.265   3.372   9.961
   10        0.329   6.271   3.369   9.969
   11        0.324   6.265   3.372   9.962
   12        0.329   6.271   3.369   9.969
   13        0.367   6.278   3.338   9.984
   14        0.378   6.279   3.355  10.012
   15        0.365   6.274   3.299   9.938
   16        0.375   6.265   3.274   9.914
   17        0.331   6.276   3.366   9.973
   18        0.333   6.273   3.361   9.967
   19        0.332   6.275   3.365   9.972
   20        0.332   6.275   3.367   9.974
   21        0.324   6.266   3.370   9.960
   22        0.325   6.266   3.371   9.962
   23        0.324   6.266   3.371   9.961
   24        0.325   6.266   3.371   9.961
   25        0.327   6.277   3.388   9.992
   26        0.329   6.264   3.361   9.954
   27        0.330   6.276   3.388   9.994
   28        0.334   6.272   3.373   9.978
   29        0.330   6.273   3.366   9.970
   30        0.333   6.276   3.368   9.977
   31        0.331   6.273   3.366   9.970
   32        0.333   6.277   3.370   9.980
   33        0.374   6.269   3.304   9.947
   34        0.354   6.262   3.334   9.950
   35        0.373   6.269   3.306   9.948
   36        0.355   6.260   3.331   9.946
   37        0.324   6.267   3.370   9.960
   38        0.323   6.259   3.356   9.938
   39        0.324   6.266   3.368   9.959
   40        0.324   6.267   3.370   9.961
   41        0.332   6.277   3.371   9.980
   42        0.331   6.274   3.366   9.970
   43        0.332   6.276   3.369   9.978
   44        0.330   6.274   3.366   9.971
   45        0.355   6.261   3.331   9.947
   46        0.373   6.269   3.308   9.950
   47        0.354   6.261   3.333   9.949
   48        0.374   6.269   3.303   9.946
   49        1.473   2.323   0.041   3.837
   50        1.474   2.318   0.042   3.834
   51        1.474   2.323   0.043   3.841
   52        1.472   2.327   0.042   3.842
   53        1.474   2.351   0.068   3.893
   54        1.474   2.348   0.067   3.889
   55        1.474   2.350   0.068   3.892
   56        1.474   2.350   0.068   3.893
   57        1.474   2.349   0.069   3.892
   58        1.474   2.348   0.067   3.890
   59        1.474   2.349   0.069   3.893
   60        1.474   2.348   0.067   3.890
   61        1.475   2.351   0.068   3.893
   62        1.474   2.349   0.067   3.890
   63        1.474   2.352   0.067   3.893
   64        1.474   2.351   0.067   3.891
   65        1.474   2.348   0.067   3.889
   66        1.474   2.349   0.069   3.892
   67        1.474   2.348   0.068   3.890
   68        1.474   2.349   0.069   3.892
   69        1.476   2.345   0.067   3.888
   70        1.477   2.335   0.068   3.880
   71        1.476   2.343   0.069   3.888
   72        1.478   2.337   0.069   3.884
   73        1.474   2.351   0.067   3.893
   74        1.474   2.350   0.067   3.891
   75        1.474   2.351   0.067   3.893
   76        1.474   2.350   0.067   3.892
   77        1.480   2.319   0.067   3.867
   78        1.476   2.323   0.057   3.855
   79        1.481   2.320   0.067   3.868
   80        1.476   2.322   0.057   3.855
   81        1.479   2.336   0.070   3.885
   82        1.473   2.349   0.064   3.885
   83        1.479   2.334   0.069   3.882
   84        1.476   2.346   0.068   3.890
   85        1.474   2.351   0.068   3.892
   86        1.474   2.350   0.067   3.891
   87        1.474   2.351   0.068   3.893
   88        1.474   2.351   0.067   3.892
   89        1.477   2.329   0.065   3.871
   90        1.477   2.330   0.065   3.872
   91        1.477   2.329   0.065   3.872
   92        1.477   2.329   0.065   3.871
   93        1.473   2.322   0.041   3.837
   94        1.472   2.327   0.041   3.841
   95        1.472   2.328   0.042   3.842
   96        1.474   2.351   0.068   3.893
   97        1.474   2.349   0.068   3.890
   98        1.474   2.349   0.068   3.891
   99        1.474   2.350   0.068   3.893
  100        1.474   2.350   0.069   3.894
  101        1.474   2.348   0.068   3.890
  102        1.474   2.350   0.069   3.893
  103        1.474   2.348   0.068   3.890
  104        1.479   2.315   0.051   3.845
  105        1.470   2.352   0.045   3.866
  106        1.478   2.320   0.052   3.850
  107        1.471   2.348   0.046   3.865
  108        1.475   2.352   0.068   3.895
  109        1.473   2.348   0.066   3.887
  110        1.475   2.350   0.068   3.893
  111        1.474   2.351   0.067   3.892
  112        1.474   2.348   0.068   3.890
  113        1.474   2.350   0.068   3.892
  114        1.474   2.348   0.068   3.890
  115        1.474   2.350   0.069   3.894
  116        1.476   2.345   0.067   3.888
  117        1.475   2.348   0.066   3.890
  118        1.475   2.338   0.065   3.878
  119        1.478   2.339   0.070   3.887
  120        1.475   2.352   0.068   3.894
  121        1.474   2.350   0.067   3.892
  122        1.474   2.350   0.067   3.892
  123        1.474   2.350   0.067   3.892
  124        1.480   2.322   0.069   3.870
  125        1.475   2.323   0.056   3.854
  126        1.479   2.323   0.069   3.872
  127        1.475   2.323   0.056   3.854
  128        1.479   2.334   0.070   3.883
  129        1.473   2.351   0.066   3.890
  130        1.478   2.341   0.070   3.889
  131        1.476   2.343   0.067   3.886
  132        1.475   2.351   0.068   3.893
  133        1.474   2.350   0.067   3.891
  134        1.474   2.350   0.068   3.892
  135        1.474   2.351   0.067   3.893
  136        1.478   2.327   0.064   3.870
  137        1.478   2.327   0.064   3.870
  138        1.478   2.327   0.064   3.870
  139        1.478   2.327   0.064   3.870
  140        1.478   2.310   0.044   3.832
  141        1.475   2.304   0.039   3.818
  142        1.478   2.310   0.044   3.832
  143        1.481   2.297   0.046   3.825
  144        1.479   2.310   0.044   3.832
  145        1.475   2.305   0.039   3.819
  146        1.478   2.310   0.044   3.833
  147        1.481   2.298   0.047   3.826
  148        1.595   3.477   0.000   5.072
  149        1.581   3.533   0.000   5.114
  150        0.880   1.682   0.000   2.561
--------------------------------------------------
tot        166.537 541.175 166.957 874.669



 magnetization (x)

# of ion       s       p       d       tot
------------------------------------------
    1        0.001   0.001   0.018   0.021
    2        0.000   0.000   0.003   0.004
    3        0.001   0.001   0.056   0.058
    4        0.004   0.006   0.213   0.223
    5       -0.000  -0.000  -0.000  -0.000
    6        0.000  -0.000   0.000   0.000
    7        0.000   0.000   0.002   0.002
    8       -0.000  -0.000   0.001   0.000
    9       -0.000  -0.000  -0.001  -0.001
   10       -0.000  -0.000  -0.001  -0.002
   11       -0.000  -0.000   0.000   0.000
   12       -0.000  -0.000  -0.001  -0.002
   13        0.000   0.000   0.002   0.003
   14        0.001   0.002   0.023   0.025
   15        0.003   0.006   0.167   0.175
   16        0.001   0.001   0.075   0.078
   17        0.000   0.000   0.001   0.001
   18       -0.000  -0.000  -0.000  -0.000
   19       -0.000  -0.000  -0.000  -0.001
   20       -0.000   0.000   0.002   0.002
   21       -0.000  -0.000  -0.002  -0.002
   22        0.000  -0.000  -0.002  -0.002
   23        0.000  -0.000  -0.002  -0.002
   24       -0.000  -0.000  -0.002  -0.002
   25        0.000   0.000  -0.000  -0.000
   26        0.000   0.000  -0.001  -0.001
   27        0.000   0.000   0.004   0.004
   28        0.000   0.000  -0.002  -0.001
   29        0.000   0.000   0.001   0.001
   30        0.000   0.000   0.001   0.001
   31        0.000   0.000   0.002   0.002
   32        0.000   0.000   0.001   0.001
   33        0.001   0.003   0.086   0.090
   34        0.000   0.004   0.116   0.120
   35        0.001   0.003   0.098   0.102
   36        0.000   0.004   0.110   0.114
   37        0.000   0.000   0.009   0.009
   38        0.000   0.000   0.006   0.006
   39        0.000   0.000   0.009   0.010
   40        0.000   0.000   0.004   0.005
   41       -0.000   0.000   0.000   0.000
   42        0.000   0.000   0.000   0.000
   43        0.000   0.000   0.001   0.001
   44        0.000   0.000   0.000   0.000
   45        0.000   0.004   0.110   0.113
   46        0.001   0.003   0.098   0.102
   47        0.000   0.004   0.117   0.121
   48        0.001   0.003   0.087   0.090
   49        0.000  -0.001   0.000  -0.000
   50        0.000   0.001   0.000   0.001
   51       -0.000  -0.010   0.001  -0.010
   52       -0.000  -0.012   0.001  -0.011
   53        0.000   0.000   0.000   0.000
   54       -0.000   0.000   0.000   0.000
   55       -0.000   0.000  -0.000   0.000
   56       -0.000   0.000  -0.000   0.000
   57        0.000  -0.000   0.000   0.000
   58       -0.000  -0.000  -0.000  -0.000
   59        0.000  -0.000   0.000   0.000
   60       -0.000  -0.000  -0.000  -0.000
   61        0.000   0.001  -0.000   0.001
   62       -0.000  -0.000   0.000  -0.000
   63       -0.000   0.001   0.000   0.001
   64       -0.000  -0.000  -0.000  -0.000
   65       -0.000  -0.000  -0.000  -0.000
   66        0.000  -0.000   0.000   0.000
   67       -0.000  -0.000  -0.000  -0.000
   68        0.000  -0.000   0.000   0.000
   69        0.000   0.001   0.000   0.001
   70        0.000  -0.000  -0.000  -0.000
   71       -0.000  -0.000  -0.000  -0.000
   72       -0.000  -0.002   0.001  -0.001
   73       -0.000  -0.000   0.000  -0.000
   74        0.000   0.000   0.000   0.000
   75       -0.000   0.000   0.000   0.000
   76       -0.000   0.000   0.000   0.000
   77        0.000   0.003   0.001   0.004
   78       -0.000  -0.007   0.001  -0.007
   79        0.000   0.006   0.001   0.007
   80       -0.000  -0.007   0.001  -0.007
   81       -0.000   0.000   0.000   0.000
   82        0.000   0.001   0.000   0.001
   83        0.000  -0.000   0.001   0.000
   84       -0.000  -0.000   0.000  -0.000
   85       -0.000  -0.000   0.000  -0.000
   86       -0.000  -0.000   0.000  -0.000
   87       -0.000  -0.000   0.000  -0.000
   88       -0.000  -0.000   0.000  -0.000
   89       -0.000  -0.004   0.001  -0.003
   90       -0.000  -0.005   0.001  -0.004
   91       -0.000  -0.005   0.001  -0.004
   92       -0.000  -0.004   0.001  -0.003
   93        0.000   0.002   0.000   0.002
   94        0.001   0.058   0.001   0.060
   95        0.001   0.021   0.001   0.023
   96        0.000   0.000   0.000   0.000
   97        0.000  -0.000   0.000   0.000
   98        0.000  -0.001  -0.000  -0.001
   99       -0.000  -0.001  -0.000  -0.001
  100       -0.000  -0.000  -0.000  -0.000
  101        0.000  -0.000   0.000  -0.000
  102       -0.000  -0.000  -0.000  -0.000
  103        0.000  -0.000   0.000  -0.000
  104        0.000   0.001   0.000   0.001
  105        0.001   0.004   0.001   0.006
  106       -0.000  -0.003   0.004   0.001
  107        0.001   0.003   0.001   0.005
  108        0.000   0.001  -0.000   0.001
  109        0.000  -0.000   0.000  -0.000
  110        0.000   0.002  -0.000   0.002
  111       -0.000  -0.000   0.000  -0.000
  112        0.000  -0.000   0.000  -0.000
  113       -0.000  -0.000  -0.000  -0.000
  114        0.000  -0.000   0.000  -0.000
  115       -0.000  -0.000  -0.000  -0.000
  116       -0.000   0.000   0.000   0.000
  117        0.000   0.000   0.000   0.000
  118        0.000   0.005   0.000   0.006
  119       -0.000   0.000   0.001   0.001
  120       -0.000   0.000  -0.000   0.000
  121       -0.000  -0.000  -0.000  -0.000
  122       -0.000   0.000  -0.000   0.000
  123        0.000  -0.000   0.000  -0.000
  124       -0.000  -0.007   0.001  -0.006
  125       -0.000  -0.004   0.000  -0.004
  126       -0.000  -0.008   0.001  -0.006
  127       -0.000  -0.004   0.000  -0.004
  128       -0.000  -0.000   0.000  -0.000
  129        0.000  -0.000   0.000  -0.000
  130        0.000   0.006   0.001   0.007
  131        0.000   0.003   0.000   0.004
  132       -0.000  -0.000   0.000  -0.000
  133       -0.000  -0.000   0.000  -0.000
  134        0.000  -0.000   0.000  -0.000
  135       -0.000   0.000   0.000   0.000
  136       -0.000   0.001   0.001   0.001
  137        0.000   0.002   0.001   0.003
  138        0.000   0.002   0.001   0.002
  139       -0.000   0.001   0.001   0.001
  140       -0.000  -0.014   0.001  -0.013
  141       -0.001  -0.018   0.001  -0.017
  142       -0.000  -0.013   0.002  -0.012
  143       -0.000  -0.017   0.002  -0.016
  144       -0.000  -0.013   0.002  -0.012
  145       -0.001  -0.018   0.001  -0.017
  146       -0.000  -0.014   0.001  -0.013
  147       -0.000  -0.017   0.002  -0.016
  148       -0.000  -0.000   0.000  -0.000
  149       -0.000  -0.000   0.000  -0.000
  150       -0.000  -0.000   0.000  -0.000
--------------------------------------------------
tot          0.015  -0.039   1.444   1.420
 

 total amount of memory used by VASP MPI-rank0  4372499. kBytes
=======================================================================

   base      :      30000. kBytes
   nonlr-proj:     105171. kBytes
   fftplans  :     213060. kBytes
   grid      :    1080416. kBytes
   one-center:       4665. kBytes
   wavefun   :    2939187. kBytes
 
  
  
 General timing and accounting informations for this job:
 ========================================================
  
                  Total CPU time used (sec):     2418.788
                            User time (sec):     1650.990
                          System time (sec):      767.798
                         Elapsed time (sec):     2171.742
  
                   Maximum memory used (kb):     7332056.
                   Average memory used (kb):          N/A
  
                          Minor page faults:      1664398
                          Major page faults:            3
                 Voluntary context switches:       308623
