 vasp.6.3.1 04May22 (build Nov  5 2022 14:28:48) complex                         
 executed on              LinuxNV date 2025.01.09  12:04:45
 running   10 mpi-ranks, with    1 threads/rank
 distrk:  each k-point on   10 cores,    1 groups
 distr:  one band on NCORE=   1 cores,   10 groups


--------------------------------------------------------------------------------------------------------


 INCAR:
   ALGO = All
   EDIFF = 1e-05
   EDIFFG = -0.01
   ENCUT = 520
   IBRION = 2
   ICHARG = 1
   ISIF = 2
   ISMEAR = 0
   ISPIN = 2
   ISYM = 0
   LMIXTAU = True
   LORBIT = 11
   LPLANE = True
   LREAL = Auto
   LWAVE = False
   MAGMOM = 48*0.06 97*0.06 3*0.06
   NCORE = 48
   NELM = 200
   NELMIN = 4
   NSIM = 4
   NSW = 200
   PREC = Accurate
   SIGMA = 0.05
   IVDW = 11

 POTCAR:    PAW_PBE W_pv 06Nov2007                
 POTCAR:    PAW_PBE Se 06Sep2000                  
 POTCAR:    PAW_PBE O 08Apr2002                   
 POTCAR:    PAW_PBE C 08Apr2002                   
 POTCAR:    PAW_PBE W_pv 06Nov2007                
   VRHFIN =W : 5p6s5d                                                                               
   LEXCH  = PE                                                                                      
   EATOM  =  1261.5581 eV,   92.7219 Ry                                                             
                                                                                                    
   TITEL  = PAW_PBE W_pv 06Nov2007                                                                  
   LULTRA =        F    use ultrasoft PP ?                                                          
   IUNSCR =        1    unscreen: 0-lin 1-nonlin 2-no                                               
   RPACOR =    2.330    partial core radius                                                         
   POMASS =  183.850; ZVAL   =   12.000    mass and valenz                                          
   RCORE  =    2.500    outmost cutoff radius                                                       
   RWIGS  =    2.750; RWIGS  =    1.455    wigner-seitz radius (au A)                               
   ENMAX  =  223.057; ENMIN  =  167.293 eV                                                          
   ICORE  =        3    local potential                                                             
   LCOR   =        T    correct aug charges                                                         
   LPAW   =        T    paw PP                                                                      
   EAUG   =  373.438                                                                                
   DEXC   =    0.000                                                                                
   RMAX   =    2.565    core radius for proj-oper                                                   
   RAUG   =    1.300    factor for augmentation sphere                                              
   RDEP   =    2.539    radius for radial grids                                                     
   RDEPT  =    2.143    core radius for aug-charge                                                  
                                                                                                    
   Atomic configuration                                                                             
   15 entries                                                                                       
     n  l   j            E        occ.                                                              
     1  0  0.50    -69465.5834   2.0000                                                             
     2  0  0.50    -11986.2640   2.0000                                                             
     2  1  1.50    -10479.8613   6.0000                                                             
     3  0  0.50     -2759.0756   2.0000                                                             
     3  1  1.50     -2313.1855   6.0000                                                             
     3  2  2.50     -1801.1183  10.0000                                                             
     4  0  0.50      -567.6789   2.0000                                                             
     4  1  1.50      -421.4692   6.0000                                                             
     4  2  2.50      -236.3471  10.0000                                                             
     4  3  3.50       -31.2665  14.0000                                                             
     5  0  0.50       -77.1084   2.0000                                                             
     5  1  1.50       -41.3856   6.0000                                                             
     5  2  2.50        -3.3185   5.0000                                                             
     6  0  0.50        -5.1438   1.0000                                                             
     5  3  2.50        -1.3606   0.0000                                                             
   Description                                                                                      
     l       E           TYP  RCUT    TYP  RCUT                                                     
     1    -41.3855615     23  2.500                                                                 
     1     -2.7211652     23  2.500                                                                 
     2     -3.3185025     23  2.500                                                                 
     2     -1.5965151     23  2.500                                                                 
     0     -5.1437956     23  2.500                                                                 
     0      4.9117602     23  2.500                                                                 
     3     -1.3605826     23  2.500                                                                 
  local pseudopotential read in
  partial core-charges read in
  partial kinetic energy density read in
  atomic valenz-charges read in
  non local Contribution for L=            1  read in
    real space projection operators read in
  non local Contribution for L=            1  read in
    real space projection operators read in
  non local Contribution for L=            2  read in
    real space projection operators read in
  non local Contribution for L=            2  read in
    real space projection operators read in
  non local Contribution for L=            0  read in
    real space projection operators read in
  non local Contribution for L=            0  read in
    real space projection operators read in
    PAW grid and wavefunctions read in
 
   number of l-projection  operators is LMAX  =            6
   number of lm-projection operators is LMMAX =           18
 
 POTCAR:    PAW_PBE Se 06Sep2000                  
   SHA256 =  eabb916e6b4c819dc065ce039373bc328651da483898f08fb9e49c498452bf12 Se/POTCAR             
   COPYR  = (c) Copyright 06Sep2000 Georg Kresse                                                    
   COPYR  = This file is part of the software VASP. Any use, copying, and all other rights are regul
   COPYR  = If you do not have a valid VASP license, you may not use, copy or distribute this file. 
   VRHFIN =Se: s2p4                                                                                 
   LEXCH  = PE                                                                                      
   EATOM  =   257.1286 eV,   18.8984 Ry                                                             
                                                                                                    
   TITEL  = PAW_PBE Se 06Sep2000                                                                    
   LULTRA =        F    use ultrasoft PP ?                                                          
   IUNSCR =        1    unscreen: 0-lin 1-nonlin 2-no                                               
   RPACOR =    1.900    partial core radius                                                         
   POMASS =   78.960; ZVAL   =    6.000    mass and valenz                                          
   RCORE  =    2.100    outmost cutoff radius                                                       
   RWIGS  =    2.200; RWIGS  =    1.164    wigner-seitz radius (au A)                               
   ENMAX  =  211.555; ENMIN  =  158.666 eV                                                          
   ICORE  =        3    local potential                                                             
   LCOR   =        T    correct aug charges                                                         
   LPAW   =        T    paw PP                                                                      
   EAUG   =  446.842                                                                                
   DEXC   =    0.000                                                                                
   RMAX   =    2.147    core radius for proj-oper                                                   
   RAUG   =    1.300    factor for augmentation sphere                                              
   RDEP   =    2.177    radius for radial grids                                                     
   RDEPT  =    1.928    core radius for aug-charge                                                  
                                                                                                    
   Atomic configuration                                                                             
   10 entries                                                                                       
     n  l   j            E        occ.                                                              
     1  0  0.50    -12503.4787   2.0000                                                             
     2  0  0.50     -1606.9547   2.0000                                                             
     2  1  1.50     -1413.3140   6.0000                                                             
     3  0  0.50      -213.4885   2.0000                                                             
     3  1  1.50      -152.9538   6.0000                                                             
     3  2  2.50       -53.1221  10.0000                                                             
     4  0  0.50       -17.2865   2.0000                                                             
     4  1  0.50        -6.5110   4.0000                                                             
     4  2  2.50        -6.8029   0.0000                                                             
     4  3  2.50        -6.8029   0.0000                                                             
   Description                                                                                      
     l       E           TYP  RCUT    TYP  RCUT                                                     
     0    -17.2865377     23  2.100                                                                 
     0    -15.3094411     23  2.100                                                                 
     1     -6.5110275     23  2.100                                                                 
     1     -0.0695192     23  2.100                                                                 
     2     -6.8029130     23  2.100                                                                 
     3     -1.3605826      7  2.100                                                                 
  local pseudopotential read in
  partial core-charges read in
  partial kinetic energy density read in
  atomic valenz-charges read in
  non local Contribution for L=            0  read in
    real space projection operators read in
  non local Contribution for L=            0  read in
    real space projection operators read in
  non local Contribution for L=            1  read in
    real space projection operators read in
  non local Contribution for L=            1  read in
    real space projection operators read in
  non local Contribution for L=            2  read in
    real space projection operators read in
    PAW grid and wavefunctions read in
 
   number of l-projection  operators is LMAX  =            5
   number of lm-projection operators is LMMAX =           13
 
 POTCAR:    PAW_PBE O 08Apr2002                   
   SHA256 =  818f92134a0a090dccd8ba1447fa70422a3b330e708bb4f08108d8ae51209ddf O/POTCAR              
   COPYR  = (c) Copyright 08Apr2002 Georg Kresse                                                    
   COPYR  = This file is part of the software VASP. Any use, copying, and all other rights are regul
   COPYR  = If you do not have a valid VASP license, you may not use, copy or distribute this file. 
   VRHFIN =O: s2p4                                                                                  
   LEXCH  = PE                                                                                      
   EATOM  =   432.3788 eV,   31.7789 Ry                                                             
                                                                                                    
   TITEL  = PAW_PBE O 08Apr2002                                                                     
   LULTRA =        F    use ultrasoft PP ?                                                          
   IUNSCR =        1    unscreen: 0-lin 1-nonlin 2-no                                               
   RPACOR =    1.200    partial core radius                                                         
   POMASS =   16.000; ZVAL   =    6.000    mass and valenz                                          
   RCORE  =    1.520    outmost cutoff radius                                                       
   RWIGS  =    1.550; RWIGS  =    0.820    wigner-seitz radius (au A)                               
   ENMAX  =  400.000; ENMIN  =  300.000 eV                                                          
   ICORE  =        2    local potential                                                             
   LCOR   =        T    correct aug charges                                                         
   LPAW   =        T    paw PP                                                                      
   EAUG   =  605.392                                                                                
   DEXC   =    0.000                                                                                
   RMAX   =    1.553    core radius for proj-oper                                                   
   RAUG   =    1.300    factor for augmentation sphere                                              
   RDEP   =    1.550    radius for radial grids                                                     
   RDEPT  =    1.329    core radius for aug-charge                                                  
                                                                                                    
   Atomic configuration                                                                             
    4 entries                                                                                       
     n  l   j            E        occ.                                                              
     1  0  0.50      -514.6923   2.0000                                                             
     2  0  0.50       -23.9615   2.0000                                                             
     2  1  0.50        -9.0305   4.0000                                                             
     3  2  1.50        -9.5241   0.0000                                                             
   Description                                                                                      
     l       E           TYP  RCUT    TYP  RCUT                                                     
     0    -23.9615318     23  1.200                                                                 
     0     -9.5240782     23  1.200                                                                 
     1     -9.0304911     23  1.520                                                                 
     1      8.1634956     23  1.520                                                                 
     2     -9.5240782      7  1.500                                                                 
  local pseudopotential read in
  partial core-charges read in
  partial kinetic energy density read in
  kinetic energy density of atom read in
  atomic valenz-charges read in
  non local Contribution for L=            0  read in
    real space projection operators read in
  non local Contribution for L=            0  read in
    real space projection operators read in
  non local Contribution for L=            1  read in
    real space projection operators read in
  non local Contribution for L=            1  read in
    real space projection operators read in
    PAW grid and wavefunctions read in
 
   number of l-projection  operators is LMAX  =            4
   number of lm-projection operators is LMMAX =            8
 
 POTCAR:    PAW_PBE C 08Apr2002                   
   SHA256 =  253f7b50bb8d59471dbedb8285d89021f4a42ed1a2c5d38a03a736e69125dd95 C/POTCAR              
   COPYR  = (c) Copyright 08Apr2002 Georg Kresse                                                    
   COPYR  = This file is part of the software VASP. Any use, copying, and all other rights are regul
   COPYR  = If you do not have a valid VASP license, you may not use, copy or distribute this file. 
   VRHFIN =C: s2p2                                                                                  
   LEXCH  = PE                                                                                      
   EATOM  =   147.1560 eV,   10.8157 Ry                                                             
                                                                                                    
   TITEL  = PAW_PBE C 08Apr2002                                                                     
   LULTRA =        F    use ultrasoft PP ?                                                          
   IUNSCR =        1    unscreen: 0-lin 1-nonlin 2-no                                               
   RPACOR =    1.200    partial core radius                                                         
   POMASS =   12.011; ZVAL   =    4.000    mass and valenz                                          
   RCORE  =    1.500    outmost cutoff radius                                                       
   RWIGS  =    1.630; RWIGS  =    0.863    wigner-seitz radius (au A)                               
   ENMAX  =  400.000; ENMIN  =  300.000 eV                                                          
   ICORE  =        2    local potential                                                             
   LCOR   =        T    correct aug charges                                                         
   LPAW   =        T    paw PP                                                                      
   EAUG   =  644.873                                                                                
   DEXC   =    0.000                                                                                
   RMAX   =    1.529    core radius for proj-oper                                                   
   RAUG   =    1.300    factor for augmentation sphere                                              
   RDEP   =    1.501    radius for radial grids                                                     
   RDEPT  =    1.300    core radius for aug-charge                                                  
                                                                                                    
   Atomic configuration                                                                             
    4 entries                                                                                       
     n  l   j            E        occ.                                                              
     1  0  0.50      -273.3789   2.0000                                                             
     2  0  0.50       -13.7508   2.0000                                                             
     2  1  0.50        -5.2854   2.0000                                                             
     3  2  1.50        -5.4423   0.0000                                                             
   Description                                                                                      
     l       E           TYP  RCUT    TYP  RCUT                                                     
     0    -13.7508458     23  1.200                                                                 
     0     -8.2022199     23  1.200                                                                 
     1     -5.2854383     23  1.500                                                                 
     1     34.0145650     23  1.500                                                                 
     2     -5.4423304      7  1.500                                                                 
  local pseudopotential read in
  partial core-charges read in
  partial kinetic energy density read in
  atomic valenz-charges read in
  non local Contribution for L=            0  read in
    real space projection operators read in
  non local Contribution for L=            0  read in
    real space projection operators read in
  non local Contribution for L=            1  read in
    real space projection operators read in
  non local Contribution for L=            1  read in
    real space projection operators read in
    PAW grid and wavefunctions read in
 
   number of l-projection  operators is LMAX  =            4
   number of lm-projection operators is LMMAX =            8
 
 Optimization of the real space projectors (new method)

 maximal supplied QI-value         = 15.12
 optimisation between [QCUT,QGAM] = [ 11.64, 23.28] = [ 37.95,151.78] Ry 
 Optimized for a Real-space Cutoff    1.53 Angstroem

   l    n(q)    QCUT    max X(q) W(low)/X(q) W(high)/X(q)  e(spline) 
   1     10    11.641     4.278    0.12E-04    0.15E-04    0.63E-07
   1     10    11.641     5.278    0.15E-04    0.52E-04    0.18E-06
   2     10    11.641    67.938    0.89E-04    0.14E-03    0.15E-06
   2     10    11.641    59.529    0.87E-04    0.14E-03    0.15E-06
   0     11    11.641   103.405    0.25E-04    0.27E-04    0.86E-07
   0     11    11.641    56.752    0.20E-04    0.25E-04    0.80E-07
 Optimization of the real space projectors (new method)

 maximal supplied QI-value         = 17.95
 optimisation between [QCUT,QGAM] = [ 11.67, 23.34] = [ 38.13,152.52] Ry 
 Optimized for a Real-space Cutoff    1.25 Angstroem

   l    n(q)    QCUT    max X(q) W(low)/X(q) W(high)/X(q)  e(spline) 
   0      9    11.669   133.320    0.17E-03    0.44E-04    0.69E-07
   0      9    11.669   111.601    0.18E-03    0.46E-04    0.72E-07
   1      8    11.669    47.222    0.22E-03    0.37E-03    0.10E-06
   1      8    11.669    33.775    0.22E-03    0.36E-03    0.10E-06
   2      8    11.669     3.720    0.19E-03    0.46E-04    0.50E-07
 Optimization of the real space projectors (new method)

 maximal supplied QI-value         = 24.76
 optimisation between [QCUT,QGAM] = [ 11.64, 23.27] = [ 37.91,151.63] Ry 
 Optimized for a Real-space Cutoff    1.14 Angstroem

   l    n(q)    QCUT    max X(q) W(low)/X(q) W(high)/X(q)  e(spline) 
   0      8    11.635    20.381    0.10E-03    0.33E-03    0.24E-06
   0      8    11.635    15.268    0.11E-03    0.35E-03    0.26E-06
   1      7    11.635     5.964    0.24E-03    0.31E-03    0.30E-06
   1      7    11.635     5.382    0.22E-03    0.25E-03    0.26E-06
 Optimization of the real space projectors (new method)

 maximal supplied QI-value         = 25.13
 optimisation between [QCUT,QGAM] = [ 11.56, 23.12] = [ 37.43,149.72] Ry 
 Optimized for a Real-space Cutoff    1.04 Angstroem

   l    n(q)    QCUT    max X(q) W(low)/X(q) W(high)/X(q)  e(spline) 
   0      7    11.561   115.676    0.20E-03    0.60E-03    0.21E-06
   0      7    11.561    87.132    0.20E-03    0.59E-03    0.21E-06
   1      7    11.561     4.429    0.23E-03    0.35E-03    0.15E-06
   1      7    11.561     2.733    0.18E-03    0.25E-03    0.12E-06
  PAW_PBE W_pv 06Nov2007                :
 energy of atom  1       EATOM=-1261.5581
 kinetic energy error for atom=    0.0019 (will be added to EATOM!!)
  PAW_PBE Se 06Sep2000                  :
 energy of atom  2       EATOM= -257.1286
 kinetic energy error for atom=    0.0007 (will be added to EATOM!!)
  PAW_PBE O 08Apr2002                   :
 energy of atom  3       EATOM= -432.3788
 kinetic energy error for atom=    0.0208 (will be added to EATOM!!)
  PAW_PBE C 08Apr2002                   :
 energy of atom  4       EATOM= -147.1560
 kinetic energy error for atom=    0.0071 (will be added to EATOM!!)
 
 
 POSCAR: W48 Se97
  positions in direct lattice
  velocities in cartesian coordinates
 exchange correlation table for  LEXCH =        8
   RHO(1)=    0.500       N(1)  =     2000
   RHO(2)=  100.500       N(2)  =     4000
 


--------------------------------------------------------------------------------------------------------


 ion  position               nearest neighbor table
   1  0.279  0.047  0.500- 108 2.45  93 2.46  49 2.46 117 2.52  69 2.52  37 3.20  13 3.20  28 3.42

   2  0.284  0.279  0.500- 105 2.44 118 2.49  70 2.49  50 2.58  94 2.58  13 2.90  25 3.08  14 3.23
                            38 3.27
   3  0.279  0.545  0.500- 106 2.45  95 2.46  51 2.46 119 2.52  71 2.52  39 3.22  15 3.23  26 3.40

   4  0.285  0.778  0.500- 107 2.44 120 2.49  72 2.49  52 2.58  96 2.58  15 2.90  27 3.08  16 3.20
                            40 3.27
   5  0.452  0.037  0.500-  97 2.54  53 2.54  64 2.54 112 2.54 121 2.54  73 2.54  37 3.28  17 3.28
                            20 3.29  41 3.29  32 3.31  28 3.33
   6  0.453  0.287  0.500- 109 2.54  61 2.54  54 2.54  98 2.54 122 2.54  74 2.54  18 3.26  38 3.27
                            29 3.28  25 3.30  42 3.30  17 3.30
   7  0.453  0.536  0.500-  99 2.54  55 2.54 110 2.54  62 2.54  75 2.55 123 2.55  19 3.27  39 3.27
                            18 3.28  43 3.28  30 3.32  26 3.33
   8  0.453  0.786  0.500-  63 2.54 111 2.54 124 2.54  76 2.54 100 2.55  56 2.55  20 3.27  40 3.28
                            27 3.29  31 3.29  44 3.29  19 3.31
   9  0.625  0.037  0.500- 116 2.53  68 2.53 101 2.53  57 2.53  77 2.56 125 2.56  32 3.28  41 3.29
                            24 3.29  21 3.30  45 3.41  36 3.45
  10  0.626  0.289  0.500-  58 2.54 102 2.54 113 2.54  65 2.54 126 2.63  78 2.63  46 3.08  22 3.22
                            33 3.25  42 3.27  21 3.31  29 3.33
  11  0.626  0.534  0.500-  66 2.53 114 2.53 103 2.54  59 2.54 127 2.63  79 2.63  34 3.08  22 3.22
                            47 3.27  30 3.27  23 3.31  43 3.33
  12  0.625  0.786  0.500-  67 2.53 115 2.53 104 2.53  60 2.53  80 2.56 128 2.56  44 3.28  31 3.28
                            24 3.30  23 3.30  35 3.41  48 3.45
  13  0.284  0.169  0.500- 105 2.44 129 2.49  81 2.49  49 2.58  93 2.58   2 2.90  25 3.08   1 3.20
                            37 3.26
  14  0.279  0.402  0.500- 106 2.45  94 2.46  50 2.46  82 2.52 130 2.52  38 3.22   2 3.23  26 3.40

  15  0.284  0.668  0.500- 107 2.44  83 2.49 131 2.49  51 2.58  95 2.58   4 2.90  27 3.09   3 3.23
                            39 3.27
  16  0.279  0.900  0.500- 108 2.45  96 2.46  52 2.46  84 2.53 132 2.53  40 3.20   4 3.20  28 3.42

  17  0.453  0.161  0.500-  61 2.54 109 2.54 133 2.54  85 2.54  97 2.55  53 2.55  41 3.26   5 3.28
                            25 3.29  37 3.29  29 3.29   6 3.30
  18  0.452  0.411  0.500-  54 2.54  98 2.54 110 2.54  62 2.54 134 2.55  86 2.55   6 3.26  38 3.27
                             7 3.28  42 3.31  30 3.31  26 3.33
  19  0.453  0.660  0.500-  63 2.54 111 2.54 135 2.54  87 2.54  99 2.54  55 2.54   7 3.27  39 3.28
                            31 3.28  43 3.28  27 3.29   8 3.31
  20  0.452  0.911  0.500- 100 2.54  56 2.54 112 2.54  64 2.54 136 2.55  88 2.55   8 3.27  40 3.28
                             5 3.29  44 3.30  32 3.30  28 3.33
  21  0.625  0.163  0.500-  65 2.55 113 2.55 101 2.55  57 2.55  89 2.57 137 2.57  33 3.02  45 3.19
                            29 3.28   9 3.30  41 3.31  10 3.31
  22  0.626  0.411  0.500- 102 2.53  58 2.53  66 2.53 114 2.53  46 2.68  34 2.68  11 3.22  10 3.22
                            42 3.29  30 3.29
  23  0.626  0.660  0.500- 103 2.55  59 2.55  67 2.55 115 2.55  91 2.57 139 2.57  47 3.03  35 3.18
                            43 3.29  12 3.30  31 3.30  11 3.31
  24  0.626  0.912  0.500- 104 2.54  60 2.54 116 2.54  68 2.54 140 2.58  92 2.58  48 3.22  36 3.22
                             9 3.29  12 3.30  44 3.30  32 3.30
  25  0.367  0.224  0.500- 109 2.55  61 2.55  70 2.55 118 2.55  81 2.55 129 2.55  13 3.08   2 3.08
                            38 3.27  37 3.27  17 3.29   6 3.30
  26  0.365  0.474  0.500- 119 2.54 130 2.54  71 2.54  82 2.54 110 2.55  62 2.55  38 3.29  39 3.29
                            18 3.33   7 3.33   3 3.40  14 3.40
  27  0.367  0.723  0.500- 111 2.55  63 2.55  83 2.55 131 2.55  72 2.55 120 2.55   4 3.08  15 3.09
                            39 3.27  40 3.27   8 3.29  19 3.29
  28  0.365  0.974  0.500-  69 2.55 117 2.55 132 2.55  84 2.55  64 2.55 112 2.55  40 3.30  37 3.30
                             5 3.33  20 3.33   1 3.42  16 3.42
  29  0.539  0.225  0.500-  74 2.54 122 2.54 113 2.54  65 2.54  85 2.55 133 2.55  42 3.28   6 3.28
                            21 3.28  17 3.29  41 3.30  10 3.33
  30  0.540  0.473  0.500- 134 2.53  86 2.53  75 2.54 123 2.54  66 2.59 114 2.59  42 3.24  43 3.27
                            11 3.27  22 3.29  18 3.31   7 3.32
  31  0.539  0.723  0.500-  67 2.54 115 2.54  87 2.54 135 2.54  76 2.54 124 2.54  19 3.28  12 3.28
                             8 3.29  43 3.30  44 3.30  23 3.30
  32  0.539  0.974  0.500- 136 2.54  88 2.54  73 2.54 121 2.54  68 2.55 116 2.55  44 3.28   9 3.28
                            41 3.29  20 3.30  24 3.30   5 3.31
  33  0.706  0.216  0.500- 144 2.38 137 2.49  89 2.49  78 2.58 126 2.58  45 2.85  21 3.02  10 3.25

  34  0.698  0.459  0.500-  90 2.49 138 2.49  46 2.52 127 2.60  79 2.60  22 2.68  11 3.08
  35  0.712  0.715  0.500-  91 2.52 139 2.52 142 2.52 143 2.60 128 2.61  80 2.61  47 2.85  23 3.18
                            12 3.41
  36  0.713  0.967  0.500- 141 2.48 140 2.50  92 2.50  77 2.61 125 2.61 145 2.63  48 2.90  24 3.22
                             9 3.45
  37  0.366  0.099  0.500-  53 2.54  97 2.54 129 2.57  81 2.57 117 2.57  69 2.57   1 3.20  13 3.26
                            25 3.27   5 3.28  17 3.29  28 3.30
  38  0.367  0.348  0.500-  98 2.54  54 2.54  70 2.57 118 2.57  82 2.57 130 2.57  14 3.22  25 3.27
                             2 3.27   6 3.27  18 3.27  26 3.29
  39  0.367  0.599  0.500-  99 2.54  55 2.54  83 2.57 131 2.57 119 2.57  71 2.57   3 3.22  15 3.27
                            27 3.27   7 3.27  19 3.28  26 3.29
  40  0.366  0.848  0.500- 100 2.54  56 2.54  72 2.57 120 2.57 132 2.57  84 2.57  16 3.20   4 3.27
                            27 3.27   8 3.28  20 3.28  28 3.30
  41  0.539  0.099  0.500-  85 2.54 133 2.54 101 2.54  57 2.54 121 2.54  73 2.54  17 3.26   9 3.29
                            32 3.29   5 3.29  29 3.30  21 3.31
  42  0.540  0.350  0.500- 134 2.54  86 2.54 122 2.54  74 2.54  58 2.59 102 2.59  30 3.24  10 3.27
                            29 3.28  22 3.29   6 3.30  18 3.31
  43  0.539  0.598  0.500- 123 2.54  75 2.54  59 2.54 103 2.54  87 2.54 135 2.54  30 3.27  19 3.28
                             7 3.28  23 3.29  31 3.30  11 3.33
  44  0.539  0.849  0.500-  76 2.54 124 2.54 136 2.54  88 2.54 104 2.55  60 2.55  32 3.28  12 3.28
                             8 3.29  20 3.30  24 3.30  31 3.30
  45  0.712  0.108  0.500- 137 2.52  89 2.52 145 2.52  77 2.60 125 2.60 144 2.62  33 2.85  21 3.19
                             9 3.41
  46  0.698  0.364  0.500-  90 2.49 138 2.49  34 2.52 126 2.60  78 2.60  22 2.68  10 3.08
  47  0.707  0.607  0.500- 143 2.39  91 2.49 139 2.49  79 2.58 127 2.58  35 2.85  23 3.03  11 3.27

  48  0.713  0.856  0.500- 141 2.48 140 2.50  92 2.50 128 2.61  80 2.61 142 2.63  36 2.90  24 3.22
                            12 3.45
  49  0.251  0.106  0.591-   1 2.46  13 2.58
  50  0.251  0.342  0.591-  14 2.46   2 2.58
  51  0.251  0.605  0.591-   3 2.46  15 2.58
  52  0.251  0.841  0.591-  16 2.46   4 2.58
  53  0.424  0.099  0.593-   5 2.54  37 2.54  17 2.55
  54  0.424  0.349  0.594-  18 2.54  38 2.54   6 2.54
  55  0.424  0.598  0.594-   7 2.54  39 2.54  19 2.54
  56  0.424  0.849  0.593-  20 2.54  40 2.54   8 2.55
  57  0.596  0.099  0.593-   9 2.53  41 2.54  21 2.55
  58  0.598  0.350  0.595-  22 2.53  10 2.54  42 2.59
  59  0.597  0.597  0.592-  11 2.54  43 2.54  23 2.55
  60  0.597  0.849  0.593-  12 2.53  24 2.54  44 2.55
  61  0.425  0.224  0.593-  17 2.54   6 2.54  25 2.55
  62  0.423  0.474  0.593-  18 2.54   7 2.54  26 2.55
  63  0.425  0.723  0.593-   8 2.54  19 2.54  27 2.55
  64  0.423  0.974  0.592-   5 2.54  20 2.54  28 2.55
  65  0.597  0.226  0.592-  29 2.54  10 2.54  21 2.55
  66  0.598  0.473  0.595-  22 2.53  11 2.53  30 2.59
  67  0.597  0.724  0.593-  12 2.53  31 2.54  23 2.55
  68  0.597  0.974  0.593-   9 2.53  24 2.54  32 2.55
  69  0.335  0.036  0.593-   1 2.52  28 2.55  37 2.57
  70  0.338  0.286  0.595-   2 2.49  25 2.55  38 2.57
  71  0.335  0.536  0.593-   3 2.52  26 2.54  39 2.57
  72  0.338  0.785  0.596-   4 2.49  27 2.55  40 2.57
  73  0.510  0.036  0.593-  32 2.54  41 2.54   5 2.54
  74  0.511  0.287  0.593-  29 2.54  42 2.54   6 2.54
  75  0.510  0.535  0.593-  43 2.54  30 2.54   7 2.55
  76  0.510  0.786  0.593-   8 2.54  44 2.54  31 2.54
  77  0.686  0.037  0.589-   9 2.56  45 2.60  36 2.61
  78  0.688  0.288  0.591-  33 2.58  46 2.60  10 2.63
  79  0.688  0.535  0.591-  47 2.58  34 2.60  11 2.63
  80  0.686  0.786  0.589-  12 2.56  35 2.61  48 2.61
  81  0.338  0.162  0.596-  13 2.49  25 2.55  37 2.57
  82  0.335  0.411  0.593-  14 2.52  26 2.54  38 2.57
  83  0.338  0.662  0.595-  15 2.49  27 2.55  39 2.57
  84  0.335  0.911  0.593-  16 2.53  28 2.55  40 2.57
  85  0.510  0.162  0.593-  41 2.54  17 2.54  29 2.55
  86  0.510  0.411  0.593-  30 2.53  42 2.54  18 2.55
  87  0.511  0.661  0.593-  31 2.54  19 2.54  43 2.54
  88  0.510  0.911  0.593-  32 2.54  44 2.54  20 2.55
  89  0.680  0.161  0.601-  33 2.49  45 2.52  21 2.57
  90  0.735  0.411  0.598-  46 2.49  34 2.49
  91  0.680  0.662  0.601-  47 2.49  35 2.52  23 2.57
  92  0.683  0.912  0.598-  48 2.50  36 2.50  24 2.58
  93  0.251  0.106  0.409-   1 2.46  13 2.58
  94  0.251  0.342  0.409-  14 2.46   2 2.58
  95  0.251  0.605  0.409-   3 2.46  15 2.58
  96  0.251  0.841  0.409-  16 2.46   4 2.58
  97  0.424  0.099  0.407-   5 2.54  37 2.54  17 2.55
  98  0.424  0.349  0.406-  18 2.54  38 2.54   6 2.54
  99  0.424  0.598  0.406-   7 2.54  39 2.54  19 2.54
 100  0.424  0.849  0.407-  20 2.54  40 2.54   8 2.55
 101  0.596  0.099  0.407-   9 2.53  41 2.54  21 2.55
 102  0.598  0.350  0.405-  22 2.53  10 2.54  42 2.59
 103  0.597  0.597  0.408-  11 2.54  43 2.54  23 2.55
 104  0.597  0.849  0.407-  12 2.53  24 2.54  44 2.55
 105  0.225  0.224  0.500-   2 2.44  13 2.44
 106  0.232  0.474  0.500-  14 2.45   3 2.45
 107  0.225  0.723  0.500-  15 2.44   4 2.44
 108  0.233  0.974  0.500-  16 2.45   1 2.45
 109  0.425  0.224  0.407-  17 2.54   6 2.54  25 2.55
 110  0.423  0.474  0.407-  18 2.54   7 2.54  26 2.55
 111  0.425  0.723  0.407-   8 2.54  19 2.54  27 2.55
 112  0.423  0.974  0.408-   5 2.54  20 2.54  28 2.55
 113  0.597  0.226  0.408-  29 2.54  10 2.54  21 2.55
 114  0.598  0.473  0.405-  22 2.53  11 2.53  30 2.59
 115  0.597  0.724  0.407-  12 2.53  31 2.54  23 2.55
 116  0.597  0.974  0.407-   9 2.53  24 2.54  32 2.55
 117  0.335  0.036  0.407-   1 2.52  28 2.55  37 2.57
 118  0.338  0.286  0.405-   2 2.49  25 2.55  38 2.57
 119  0.335  0.536  0.407-   3 2.52  26 2.54  39 2.57
 120  0.338  0.785  0.404-   4 2.49  27 2.55  40 2.57
 121  0.510  0.036  0.407-  32 2.54  41 2.54   5 2.54
 122  0.511  0.287  0.407-  29 2.54  42 2.54   6 2.54
 123  0.510  0.535  0.407-  43 2.54  30 2.54   7 2.55
 124  0.510  0.786  0.407-   8 2.54  44 2.54  31 2.54
 125  0.686  0.037  0.411-   9 2.56  45 2.60  36 2.61
 126  0.688  0.288  0.409-  33 2.58  46 2.60  10 2.63
 127  0.688  0.535  0.409-  47 2.58  34 2.60  11 2.63
 128  0.686  0.786  0.411-  12 2.56  35 2.61  48 2.61
 129  0.338  0.162  0.404-  13 2.49  25 2.55  37 2.57
 130  0.335  0.411  0.407-  14 2.52  26 2.54  38 2.57
 131  0.338  0.662  0.405-  15 2.49  27 2.55  39 2.57
 132  0.335  0.911  0.407-  16 2.53  28 2.55  40 2.57
 133  0.510  0.162  0.407-  41 2.54  17 2.54  29 2.55
 134  0.510  0.411  0.407-  30 2.53  42 2.54  18 2.55
 135  0.511  0.661  0.407-  31 2.54  19 2.54  43 2.54
 136  0.510  0.911  0.407-  32 2.54  44 2.54  20 2.55
 137  0.680  0.161  0.399-  33 2.49  45 2.52  21 2.57
 138  0.735  0.411  0.402-  46 2.49  34 2.49
 139  0.680  0.662  0.399-  47 2.49  35 2.52  23 2.57
 140  0.683  0.912  0.402-  48 2.50  36 2.50  24 2.58
 141  0.774  0.912  0.500-  36 2.48  48 2.48
 142  0.766  0.782  0.500-  35 2.52  48 2.63
 143  0.771  0.649  0.500-  47 2.39  35 2.60
 144  0.771  0.175  0.500-  33 2.38  45 2.62
 145  0.766  0.041  0.500-  45 2.52  36 2.63
 146  0.798  0.517  0.500- 148 1.18
 147  0.844  0.449  0.500- 148 1.17
 148  0.821  0.483  0.500- 147 1.17 146 1.18
 

IMPORTANT INFORMATION: All symmetrisations will be switched off!
NOSYMM: (Re-)initialisation of all symmetry stuff for point group C_1.


----------------------------------------------------------------------------------------

                                     Primitive cell                                     

  volume of cell :   15708.7018

  direct lattice vectors                    reciprocal lattice vectors
    33.000000000  0.000000000  0.000000000     0.030303030  0.000000000  0.000000000
     0.000000000 26.256000519  0.000000000     0.000000000  0.038086532  0.000000000
     0.000000000  0.000000000 18.129999161     0.000000000  0.000000000  0.055157201

  length of vectors
    33.000000000 26.256000519 18.129999161     0.030303030  0.038086532  0.055157201

  position of ions in fractional coordinates (direct lattice)
     0.278923164  0.046990495  0.499999908
     0.284244421  0.279285155  0.499999095
     0.278928344  0.545289282  0.499984797
     0.284529712  0.778482665  0.499976112
     0.452208945  0.036625163  0.500002938
     0.453031525  0.287199236  0.500008008
     0.452505886  0.536012951  0.500004372
     0.452901224  0.786493386  0.499998724
     0.625026657  0.036980054  0.500004560
     0.626369614  0.288768032  0.500003617
     0.626343930  0.534058608  0.499997782
     0.625140661  0.785977195  0.500001585
     0.284449285  0.168761380  0.500000854
     0.278869075  0.401940801  0.499977765
     0.284397871  0.667940304  0.499974805
     0.278954346  0.900183076  0.499990398
     0.452998995  0.161450402  0.500006734
     0.452422577  0.411198723  0.500008907
     0.453160426  0.660406275  0.499998874
     0.452461014  0.911194069  0.500003122
     0.625363350  0.162533753  0.500005797
     0.626459706  0.411423756  0.499995118
     0.625621729  0.660186702  0.499999659
     0.626070897  0.911524552  0.500005576
     0.366738354  0.224015456  0.500006962
     0.364734639  0.473628379  0.500000859
     0.366838332  0.723438409  0.499981824
     0.364613986  0.973754508  0.499998490
     0.539104608  0.224905439  0.500011183
     0.539736237  0.473238672  0.500007229
     0.538985201  0.723333898  0.500000325
     0.539178085  0.973918680  0.500006441
     0.706367902  0.216264097  0.500005956
     0.698191858  0.459397521  0.499986518
     0.711720134  0.714995168  0.500004366
     0.713264256  0.966826586  0.499998036
     0.366459780  0.099484206  0.500001365
     0.366666723  0.348461797  0.500003009
     0.366808035  0.598890358  0.499989634
     0.366493763  0.848139862  0.499988776
     0.538654911  0.099306192  0.500008657
     0.539831209  0.349678741  0.500009869
     0.539098665  0.597706080  0.499998483
     0.539326395  0.849025566  0.500004951
     0.711615510  0.108018063  0.500002810
     0.698101381  0.363580153  0.499989335
     0.706794239  0.606608712  0.499996818
     0.713289400  0.856303775  0.500004338
     0.250522398  0.106352744  0.591211345
     0.250602707  0.341988834  0.590934852
     0.250756590  0.605264616  0.590987070
     0.250551700  0.840772590  0.591179984
     0.423781694  0.099006798  0.593444507
     0.423828111  0.349178253  0.593722514
     0.424007919  0.598281699  0.593652748
     0.423824411  0.848934546  0.593431578
     0.596187019  0.099213058  0.592882920
     0.598428679  0.350350620  0.594972968
     0.596936538  0.596599888  0.592420838
     0.597109740  0.848767870  0.593004095
     0.424634364  0.224225883  0.593032920
     0.422826010  0.473624467  0.592647332
     0.424751406  0.723399013  0.592965949
     0.422805140  0.973823270  0.592438053
     0.596887668  0.226203873  0.592469346
     0.598377772  0.472538029  0.594926332
     0.596526353  0.723505925  0.592842760
     0.597040983  0.974237254  0.593008106
     0.335326799  0.036483846  0.592854956
     0.338197920  0.285823285  0.595451871
     0.335400439  0.536234411  0.592812130
     0.338365819  0.785267168  0.595527423
     0.509953062  0.036332806  0.592972452
     0.510598839  0.287456799  0.593280324
     0.510237418  0.535303496  0.593213127
     0.510456111  0.786405793  0.593019130
     0.685526464  0.037135160  0.588559617
     0.688303273  0.288044830  0.591321802
     0.688255690  0.534894380  0.591197335
     0.685582575  0.785918251  0.588599507
     0.338249461  0.162184632  0.595622540
     0.335326835  0.411094309  0.592840276
     0.338362487  0.661547279  0.595398364
     0.335324882  0.911010971  0.592896036
     0.510455659  0.161969873  0.593336294
     0.510233584  0.411493358  0.593019856
     0.510667104  0.660574002  0.593303240
     0.510284203  0.911491071  0.593142961
     0.680155713  0.160852786  0.600584731
     0.734868608  0.411361567  0.597576253
     0.680437730  0.661887869  0.600522006
     0.682854098  0.911548682  0.597942614
     0.250532046  0.106347222  0.408778153
     0.250638558  0.341986864  0.409000569
     0.250766199  0.605248486  0.408962394
     0.250556283  0.840794895  0.408773982
     0.423784283  0.099009399  0.406562887
     0.423829181  0.349182119  0.406286321
     0.424014608  0.598277005  0.406347363
     0.423830774  0.848936399  0.406565886
     0.596184381  0.099212815  0.407135334
     0.598423194  0.350347952  0.405032876
     0.596939353  0.596599396  0.407579705
     0.597109492  0.848771403  0.407005434
     0.224900816  0.224039846  0.499996862
     0.231506611  0.473608539  0.499937439
     0.225005064  0.723060136  0.499991022
     0.233276250  0.973557583  0.499998186
     0.424631465  0.224229379  0.406983570
     0.422831038  0.473620415  0.407364962
     0.424759489  0.723398285  0.407021191
     0.422812805  0.973821962  0.407561169
     0.596880280  0.226209595  0.407548945
     0.598371538  0.472541973  0.405062448
     0.596524499  0.723504596  0.407153677
     0.597041587  0.974236456  0.407003248
     0.335324073  0.036489076  0.407144079
     0.338198662  0.285819794  0.404554256
     0.335405057  0.536226688  0.407176948
     0.338364293  0.785270972  0.404428867
     0.509954401  0.036339060  0.407038352
     0.510600564  0.287463376  0.406741575
     0.510237478  0.535303239  0.406794312
     0.510457494  0.786409897  0.406982942
     0.685523953  0.037136514  0.411438185
     0.688296401  0.288039247  0.408679924
     0.688247988  0.534895844  0.408790345
     0.685588263  0.785918790  0.411407219
     0.338249609  0.162187789  0.404385266
     0.335349267  0.411094775  0.407141279
     0.338369607  0.661544761  0.404554621
     0.335327860  0.911019650  0.407091399
     0.510454085  0.161972294  0.406680931
     0.510235714  0.411490866  0.407006595
     0.510665574  0.660575724  0.406694344
     0.510286398  0.911493104  0.406872071
     0.680155566  0.160855018  0.399426340
     0.734841573  0.411359886  0.402364456
     0.680439358  0.661893062  0.399475623
     0.682851130  0.911542866  0.402063529
     0.774174075  0.911679443  0.499984660
     0.766498041  0.781985229  0.500033518
     0.770749865  0.649122901  0.500014327
     0.770648864  0.174834938  0.499999250
     0.766493906  0.041453841  0.500003515
     0.798012530  0.516931299  0.500073435
     0.844158668  0.448586917  0.500096519
     0.820986101  0.482560032  0.500083995

  ion indices of the primitive-cell ions
   primitive index   ion index
                 1           1
                 2           2
                 3           3
                 4           4
                 5           5
                 6           6
                 7           7
                 8           8
                 9           9
                10          10
                11          11
                12          12
                13          13
                14          14
                15          15
                16          16
                17          17
                18          18
                19          19
                20          20
                21          21
                22          22
                23          23
                24          24
                25          25
                26          26
                27          27
                28          28
                29          29
                30          30
                31          31
                32          32
                33          33
                34          34
                35          35
                36          36
                37          37
                38          38
                39          39
                40          40
                41          41
                42          42
                43          43
                44          44
                45          45
                46          46
                47          47
                48          48
                49          49
                50          50
                51          51
                52          52
                53          53
                54          54
                55          55
                56          56
                57          57
                58          58
                59          59
                60          60
                61          61
                62          62
                63          63
                64          64
                65          65
                66          66
                67          67
                68          68
                69          69
                70          70
                71          71
                72          72
                73          73
                74          74
                75          75
                76          76
                77          77
                78          78
                79          79
                80          80
                81          81
                82          82
                83          83
                84          84
                85          85
                86          86
                87          87
                88          88
                89          89
                90          90
                91          91
                92          92
                93          93
                94          94
                95          95
                96          96
                97          97
                98          98
                99          99
               100         100
               101         101
               102         102
               103         103
               104         104
               105         105
               106         106
               107         107
               108         108
               109         109
               110         110
               111         111
               112         112
               113         113
               114         114
               115         115
               116         116
               117         117
               118         118
               119         119
               120         120
               121         121
               122         122
               123         123
               124         124
               125         125
               126         126
               127         127
               128         128
               129         129
               130         130
               131         131
               132         132
               133         133
               134         134
               135         135
               136         136
               137         137
               138         138
               139         139
               140         140
               141         141
               142         142
               143         143
               144         144
               145         145
               146         146
               147         147
               148         148

----------------------------------------------------------------------------------------

 
 
 KPOINTS: KPOINTS file                            

Automatic generation of k-mesh.
 Grid dimensions read from file:
 generate k-points for:    1    1    1

 Generating k-lattice:

  Cartesian coordinates                     Fractional coordinates (reciprocal lattice)
     0.030303030  0.000000000  0.000000000     1.000000000  0.000000000  0.000000000
     0.000000000  0.038086532  0.000000000     0.000000000  1.000000000  0.000000000
     0.000000000  0.000000000  0.055157201     0.000000000  0.000000000  1.000000000

  Length of vectors
     0.030303030  0.038086532  0.055157201

  Shift w.r.t. Gamma in fractional coordinates (k-lattice)
     0.000000000  0.000000000  0.000000000

 
 Subroutine IBZKPT returns following result:
 ===========================================
 
 Found      1 irreducible k-points:
 
 Following reciprocal coordinates:
            Coordinates               Weight
  0.000000  0.000000  0.000000      1.000000
 
 Following cartesian coordinates:
            Coordinates               Weight
  0.000000  0.000000  0.000000      1.000000
 


--------------------------------------------------------------------------------------------------------




 Dimension of arrays:
   k-points           NKPTS =      1   k-points in BZ     NKDIM =      1   number of bands    NBANDS=    710
   number of dos      NEDOS =    301   number of ions     NIONS =    148
   non local maximal  LDIM  =      6   non local SUM 2l+1 LMDIM =     18
   total plane-waves  NPLWV = ******
   max r-space proj   IRMAX =   6650   max aug-charges    IRDMAX=  25124
   dimension x,y,z NGX =   250 NGY =  196 NGZ =  140
   dimension x,y,z NGXF=   500 NGYF=  392 NGZF=  280
   support grid    NGXF=   500 NGYF=  392 NGZF=  280
   ions per type =              48  97   2   1
   NGX,Y,Z   is equivalent  to a cutoff of  12.59, 12.41, 12.84 a.u.
   NGXF,Y,Z  is equivalent  to a cutoff of  25.19, 24.82, 25.68 a.u.

 SYSTEM =  unknown system                          
 POSCAR =  W48 Se97                                

 Startparameter for this run:
   NWRITE =      2    write-flag & timer
   PREC   = accura    normal or accurate (medium, high low for compatibility)
   ISTART =      0    job   : 0-new  1-cont  2-samecut
   ICHARG =      1    charge: 1-file 2-atom 10-const
   ISPIN  =      2    spin polarized calculation?
   LNONCOLLINEAR =      F non collinear calculations
   LSORBIT =      F    spin-orbit coupling
   INIWAV =      1    electr: 0-lowe 1-rand  2-diag
   LASPH  =      F    aspherical Exc in radial PAW
 Electronic Relaxation 1
   ENCUT  =  520.0 eV  38.22 Ry    6.18 a.u.  61.36 48.82 33.71*2*pi/ulx,y,z
   ENINI  =  520.0     initial cutoff
   ENAUG  =  644.9 eV  augmentation charge cutoff
   NELM   =    200;   NELMIN=  4; NELMDL= -5     # of ELM steps 
   EDIFF  = 0.1E-04   stopping-criterion for ELM
   LREAL  =      T    real-space projection
   NLSPLINE    = F    spline interpolate recip. space projectors
   LCOMPAT=      F    compatible to vasp.4.4
   GGA_COMPAT  = T    GGA compatible to vasp.4.4-vasp.4.6
   LMAXPAW     = -100 max onsite density
   LMAXMIX     =    2 max onsite mixed and CHGCAR
   VOSKOWN=      0    Vosko Wilk Nusair interpolation
   ROPT   =   -0.00025  -0.00025  -0.00025  -0.00025
 Ionic relaxation
   EDIFFG = -.1E-01   stopping-criterion for IOM
   NSW    =    200    number of steps for IOM
   NBLOCK =      1;   KBLOCK =    200    inner block; outer block 
   IBRION =      2    ionic relax: 0-MD 1-quasi-New 2-CG
   NFREE  =      1    steps in history (QN), initial steepest desc. (CG)
   ISIF   =      2    stress and relaxation
   IWAVPR =     11    prediction:  0-non 1-charg 2-wave 3-comb
   ISYM   =      0    0-nonsym 1-usesym 2-fastsym
   LCORR  =      T    Harris-Foulkes like correction to forces

   POTIM  = 0.5000    time-step for ionic-motion
   TEIN   =    0.0    initial temperature
   TEBEG  =    0.0;   TEEND  =   0.0 temperature during run
   SMASS  =  -3.00    Nose mass-parameter (am)
   estimated Nose-frequenzy (Omega)   =  0.10E-29 period in steps = 0.13E+47 mass=  -0.249E-25a.u.
   SCALEE = 1.0000    scale energy and forces
   NPACO  =    256;   APACO  = 10.0  distance and # of slots for P.C.
   PSTRESS=    0.0 pullay stress

  Mass of Ions in am
   POMASS = 183.85 78.96 16.00 12.01
  Ionic Valenz
   ZVAL   =  12.00  6.00  6.00  4.00
  Atomic Wigner-Seitz radii
   RWIGS  =  -1.00 -1.00 -1.00 -1.00
  virtual crystal weights 
   VCA    =   1.00  1.00  1.00  1.00
   NELECT =    1174.0000    total number of electrons
   NUPDOWN=      -1.0000    fix difference up-down

 DOS related values:
   EMIN   =  10.00;   EMAX   =-10.00  energy-range for DOS
   EFERMI =   0.00
   ISMEAR =     0;   SIGMA  =   0.05  broadening in eV -4-tet -1-fermi 0-gaus

 Electronic relaxation 2 (details)
   IALGO  =     58    algorithm
   LDIAG  =      T    sub-space diagonalisation (order eigenvalues)
   LSUBROT=      F    optimize rotation matrix (better conditioning)
   TURBO    =      0    0=normal 1=particle mesh
   IRESTART =      0    0=no restart 2=restart with 2 vectors
   NREBOOT  =      0    no. of reboots
   NMIN     =      0    reboot dimension
   EREF     =   0.00    reference energy to select bands
   IMIX   =      4    mixing-type and parameters
     AMIX     =   0.40;   BMIX     =  1.00
     AMIX_MAG =   1.60;   BMIX_MAG =  1.00
     AMIN     =   0.10
     WC   =   100.;   INIMIX=   1;  MIXPRE=   1;  MAXMIX= -45

 Intra band minimization:
   WEIMIN = 0.0010     energy-eigenvalue tresh-hold
   EBREAK =  0.35E-08  absolut break condition
   DEPER  =   0.30     relativ break condition  

   TIME   =   0.40     timestep for ELM

  volume/ion in A,a.u.               =     106.14       716.27
  Fermi-wavevector in a.u.,A,eV,Ry     =   0.689579  1.303116  6.469834  0.475519
  Thomas-Fermi vector in A             =   1.770704
 
 Write flags
   LWAVE        =      F    write WAVECAR
   LDOWNSAMPLE  =      F    k-point downsampling of WAVECAR
   LCHARG       =      T    write CHGCAR
   LVTOT        =      F    write LOCPOT, total local potential
   LVHAR        =      F    write LOCPOT, Hartree potential only
   LELF         =      F    write electronic localiz. function (ELF)
   LORBIT       =     11    0 simple, 1 ext, 2 COOP (PROOUT), +10 PAW based schemes


 Dipole corrections
   LMONO  =      F    monopole corrections only (constant potential shift)
   LDIPOL =      F    correct potential (dipole corrections)
   IDIPOL =      0    1-x, 2-y, 3-z, 4-all directions 
   EPSILON=  1.0000000 bulk dielectric constant

 Exchange correlation treatment:
   GGA     =    --    GGA type
   LEXCH   =     8    internal setting for exchange type
   LIBXC   =     F    Libxc                    
   VOSKOWN =     0    Vosko Wilk Nusair interpolation
   LHFCALC =     F    Hartree Fock is set to
   LHFONE  =     F    Hartree Fock one center treatment
   AEXX    =    0.0000 exact exchange contribution

 Linear response parameters
   LEPSILON=     F    determine dielectric tensor
   LRPA    =     F    only Hartree local field effects (RPA)
   LNABLA  =     F    use nabla operator in PAW spheres
   LVEL    =     F    velocity operator in full k-point grid
   CSHIFT  =0.1000    complex shift for real part using Kramers Kronig
   OMEGAMAX=  -1.0    maximum frequency
   DEG_THRESHOLD= 0.2000000E-02 threshold for treating states as degnerate
   RTIME   =   -0.100 relaxation time in fs
  (WPLASMAI=    0.000 imaginary part of plasma frequency in eV, 0.658/RTIME)
   DFIELD  = 0.0000000 0.0000000 0.0000000 field for delta impulse in time
 
  Optional k-point grid parameters
   LKPOINTS_OPT  =     F    use optional k-point grid
   KPOINTS_OPT_MODE=     1    mode for optional k-point grid
 
 Orbital magnetization related:
   ORBITALMAG=     F  switch on orbital magnetization
   LCHIMAG   =     F  perturbation theory with respect to B field
   DQ        =  0.001000  dq finite difference perturbation B field
   LLRAUG    =     F  two centre corrections for induced B field



--------------------------------------------------------------------------------------------------------


 conjugate gradient relaxation of ions
 charge density and potential will be updated during run
 spin polarized calculation
 Conjugate gradient for all bands (Freysoldt, et al. PRB 79, 241103 (2009))
 preconditioned conjugated gradient                                        
 perform sub-space diagonalisation
    before iterative eigenvector-optimisation
 modified Broyden-mixing scheme, WC =      100.0
 initial mixing is a Kerker type mixing with AMIX =  0.4000 and BMIX =      1.0000
 Hartree-type preconditioning will be used
 using additional bands           123
 real space projection scheme for non local part
 use partial core corrections
 no Harris-corrections to forces 
 use gradient corrections 
 use of overlap-Matrix (Vanderbilt PP)
 Gauss-broadening in eV      SIGMA  =   0.05


--------------------------------------------------------------------------------------------------------


  energy-cutoff  :      520.00
  volume of cell :    15708.70
      direct lattice vectors                 reciprocal lattice vectors
    33.000000000  0.000000000  0.000000000     0.030303030  0.000000000  0.000000000
     0.000000000 26.256000519  0.000000000     0.000000000  0.038086532  0.000000000
     0.000000000  0.000000000 18.129999161     0.000000000  0.000000000  0.055157201

  length of vectors
    33.000000000 26.256000519 18.129999161     0.030303030  0.038086532  0.055157201


 
 k-points in units of 2pi/SCALE and weight: KPOINTS file                            
   0.00000000  0.00000000  0.00000000       1.000
 
 k-points in reciprocal lattice and weights: KPOINTS file                            
   0.00000000  0.00000000  0.00000000       1.000
 
 position of ions in fractional coordinates (direct lattice) 
   0.27892316  0.04699049  0.49999991
   0.28424442  0.27928515  0.49999909
   0.27892834  0.54528928  0.49998480
   0.28452971  0.77848267  0.49997611
   0.45220895  0.03662516  0.50000294
   0.45303153  0.28719924  0.50000801
   0.45250589  0.53601295  0.50000437
   0.45290122  0.78649339  0.49999872
   0.62502666  0.03698005  0.50000456
   0.62636961  0.28876803  0.50000362
   0.62634393  0.53405861  0.49999778
   0.62514066  0.78597720  0.50000158
   0.28444929  0.16876138  0.50000085
   0.27886907  0.40194080  0.49997777
   0.28439787  0.66794030  0.49997480
   0.27895435  0.90018308  0.49999040
   0.45299900  0.16145040  0.50000673
   0.45242258  0.41119872  0.50000891
   0.45316043  0.66040627  0.49999887
   0.45246101  0.91119407  0.50000312
   0.62536335  0.16253375  0.50000580
   0.62645971  0.41142376  0.49999512
   0.62562173  0.66018670  0.49999966
   0.62607090  0.91152455  0.50000558
   0.36673835  0.22401546  0.50000696
   0.36473464  0.47362838  0.50000086
   0.36683833  0.72343841  0.49998182
   0.36461399  0.97375451  0.49999849
   0.53910461  0.22490544  0.50001118
   0.53973624  0.47323867  0.50000723
   0.53898520  0.72333390  0.50000033
   0.53917808  0.97391868  0.50000644
   0.70636790  0.21626410  0.50000596
   0.69819186  0.45939752  0.49998652
   0.71172013  0.71499517  0.50000437
   0.71326426  0.96682659  0.49999804
   0.36645978  0.09948421  0.50000137
   0.36666672  0.34846180  0.50000301
   0.36680804  0.59889036  0.49998963
   0.36649376  0.84813986  0.49998878
   0.53865491  0.09930619  0.50000866
   0.53983121  0.34967874  0.50000987
   0.53909867  0.59770608  0.49999848
   0.53932640  0.84902557  0.50000495
   0.71161551  0.10801806  0.50000281
   0.69810138  0.36358015  0.49998933
   0.70679424  0.60660871  0.49999682
   0.71328940  0.85630377  0.50000434
   0.25052240  0.10635274  0.59121134
   0.25060271  0.34198883  0.59093485
   0.25075659  0.60526462  0.59098707
   0.25055170  0.84077259  0.59117998
   0.42378169  0.09900680  0.59344451
   0.42382811  0.34917825  0.59372251
   0.42400792  0.59828170  0.59365275
   0.42382441  0.84893455  0.59343158
   0.59618702  0.09921306  0.59288292
   0.59842868  0.35035062  0.59497297
   0.59693654  0.59659989  0.59242084
   0.59710974  0.84876787  0.59300409
   0.42463436  0.22422588  0.59303292
   0.42282601  0.47362447  0.59264733
   0.42475141  0.72339901  0.59296595
   0.42280514  0.97382327  0.59243805
   0.59688767  0.22620387  0.59246935
   0.59837777  0.47253803  0.59492633
   0.59652635  0.72350592  0.59284276
   0.59704098  0.97423725  0.59300811
   0.33532680  0.03648385  0.59285496
   0.33819792  0.28582328  0.59545187
   0.33540044  0.53623441  0.59281213
   0.33836582  0.78526717  0.59552742
   0.50995306  0.03633281  0.59297245
   0.51059884  0.28745680  0.59328032
   0.51023742  0.53530350  0.59321313
   0.51045611  0.78640579  0.59301913
   0.68552646  0.03713516  0.58855962
   0.68830327  0.28804483  0.59132180
   0.68825569  0.53489438  0.59119734
   0.68558257  0.78591825  0.58859951
   0.33824946  0.16218463  0.59562254
   0.33532683  0.41109431  0.59284028
   0.33836249  0.66154728  0.59539836
   0.33532488  0.91101097  0.59289604
   0.51045566  0.16196987  0.59333629
   0.51023358  0.41149336  0.59301986
   0.51066710  0.66057400  0.59330324
   0.51028420  0.91149107  0.59314296
   0.68015571  0.16085279  0.60058473
   0.73486861  0.41136157  0.59757625
   0.68043773  0.66188787  0.60052201
   0.68285410  0.91154868  0.59794261
   0.25053205  0.10634722  0.40877815
   0.25063856  0.34198686  0.40900057
   0.25076620  0.60524849  0.40896239
   0.25055628  0.84079489  0.40877398
   0.42378428  0.09900940  0.40656289
   0.42382918  0.34918212  0.40628632
   0.42401461  0.59827701  0.40634736
   0.42383077  0.84893640  0.40656589
   0.59618438  0.09921282  0.40713533
   0.59842319  0.35034795  0.40503288
   0.59693935  0.59659940  0.40757971
   0.59710949  0.84877140  0.40700543
   0.22490082  0.22403985  0.49999686
   0.23150661  0.47360854  0.49993744
   0.22500506  0.72306014  0.49999102
   0.23327625  0.97355758  0.49999819
   0.42463147  0.22422938  0.40698357
   0.42283104  0.47362042  0.40736496
   0.42475949  0.72339829  0.40702119
   0.42281280  0.97382196  0.40756117
   0.59688028  0.22620959  0.40754895
   0.59837154  0.47254197  0.40506245
   0.59652450  0.72350460  0.40715368
   0.59704159  0.97423646  0.40700325
   0.33532407  0.03648908  0.40714408
   0.33819866  0.28581979  0.40455426
   0.33540506  0.53622669  0.40717695
   0.33836429  0.78527097  0.40442887
   0.50995440  0.03633906  0.40703835
   0.51060056  0.28746338  0.40674158
   0.51023748  0.53530324  0.40679431
   0.51045749  0.78640990  0.40698294
   0.68552395  0.03713651  0.41143818
   0.68829640  0.28803925  0.40867992
   0.68824799  0.53489584  0.40879035
   0.68558826  0.78591879  0.41140722
   0.33824961  0.16218779  0.40438527
   0.33534927  0.41109477  0.40714128
   0.33836961  0.66154476  0.40455462
   0.33532786  0.91101965  0.40709140
   0.51045409  0.16197229  0.40668093
   0.51023571  0.41149087  0.40700659
   0.51066557  0.66057572  0.40669434
   0.51028640  0.91149310  0.40687207
   0.68015557  0.16085502  0.39942634
   0.73484157  0.41135989  0.40236446
   0.68043936  0.66189306  0.39947562
   0.68285113  0.91154287  0.40206353
   0.77417408  0.91167944  0.49998466
   0.76649804  0.78198523  0.50003352
   0.77074986  0.64912290  0.50001433
   0.77064886  0.17483494  0.49999925
   0.76649391  0.04145384  0.50000351
   0.79801253  0.51693130  0.50007343
   0.84415867  0.44858692  0.50009652
   0.82098610  0.48256003  0.50008400
 
 position of ions in cartesian coordinates  (Angst):
   9.20446443  1.23378246  9.06499791
   9.38006590  7.33291116  9.06498317
   9.20463534 14.31711567  9.06472394
   9.38948049 20.43984126  9.06456649
  14.92289520  0.96163030  9.06505285
  14.95004033  7.54070330  9.06514477
  14.93269425 14.07355632  9.06507885
  14.94574038 20.65017076  9.06497645
  20.62587967  0.97094832  9.06508225
  20.67019725  7.58189360  9.06506515
  20.66934969 14.02224308  9.06495937
  20.62964183 20.63661765  9.06502831
   9.38682641  4.43099888  9.06501507
   9.20267947 10.55335788  9.06459646
   9.38512973 17.53744096  9.06454279
   9.20549343 23.63520731  9.06482550
  14.94896684  4.23904185  9.06512166
  14.92994503 10.79643388  9.06516106
  14.95429407 17.33962749  9.06497916
  14.93121346 23.92431194  9.06505617
  20.63699053  4.26748631  9.06510467
  20.67317031 10.80234236  9.06491107
  20.64551704 17.33386240  9.06499340
  20.66033960 23.93298910  9.06510067
  12.10236568  5.88174993  9.06512581
  12.03624308 12.43558697  9.06501515
  12.10566496 18.99459924  9.06467004
  12.03226154 25.56689887  9.06497220
  17.79045205  5.90511731  9.06520233
  17.81129581 12.42535482  9.06513064
  17.78651165 18.99185519  9.06500548
  17.79287680 25.57120937  9.06511635
  23.31014077  5.67823025  9.06510757
  23.04033131 12.06194155  9.06475516
  23.48676442 18.77291351  9.06507874
  23.53772044 25.38499934  9.06496397
  12.09317275  2.61205736  9.06502434
  12.10000185  9.14921312  9.06505413
  12.10466517 15.72446556  9.06481165
  12.09429417 22.26876065  9.06479609
  17.77561207  2.60738343  9.06515654
  17.81442988  9.18116520  9.06517851
  17.79025595 15.69337116  9.06497208
  17.79777104 22.29201570  9.06508935
  23.48331183  2.83612231  9.06505053
  23.03734556  9.54616069  9.06480622
  23.32420989 15.92711867  9.06494190
  23.53855021 22.48311235  9.06507823
   8.26723915  2.79239771 10.71866118
   8.26988933  8.97925900 10.71364838
   8.27496749 15.89182807 10.71459509
   8.26820609 22.07532556 10.71809262
  13.98479591  2.59952254 10.75914841
  13.98632765  9.16802439 10.76418868
  13.99226132 15.70848459 10.76292383
  13.98620556 22.28962588 10.75891401
  19.67417162  2.60493810 10.74896684
  19.74814642  9.19880605 10.78685941
  19.69890575 15.66432698 10.74058929
  19.70462141 22.28524965 10.75116374
  14.01293403  5.88727489 10.75168634
  13.95325833 12.43548425 10.74469564
  14.01679640 18.99356487 10.75047215
  13.95256964 25.56870428 10.74090141
  19.69729305  5.93920899 10.74146874
  19.74646649 12.40695873 10.78601390
  19.68536964 18.99637194 10.74823874
  19.70235244 25.57957385 10.75123646
  11.06578438  0.95791987 10.74845985
  11.16053134  7.50457632 10.79554192
  11.06821449 14.07937098 10.74768341
  11.16607201 20.61797518 10.79691168
  16.82845104  0.95395418 10.75059005
  16.84976169  7.54746587 10.75617178
  16.83783479 14.05492886 10.75495350
  16.84505167 20.64787092 10.75143632
  22.62237330  0.97502079 10.67058536
  22.71400800  7.56290520 10.72066377
  22.71243777 14.04418711 10.71840719
  22.62422496 20.63507000 10.67130857
  11.16223220  4.25831979 10.79863615
  11.06578554 10.79369239 10.74819371
  11.16596208 17.36958571 10.79457184
  11.06572112 23.91950453 10.74920463
  16.84503675  4.25268106 10.75718651
  16.83770827 10.80416981 10.75144949
  16.85201444 17.34403134 10.75658724
  16.83937869 23.93211004 10.75368139
  22.44513852  4.22335083 10.88860067
  24.25066405 10.80070952 10.83405696
  22.45444510 17.37852824 10.88746346
  22.53418525 23.93362267 10.84069908
   8.26755751  2.79225270  7.41114756
   8.27107243  8.97920728  7.41517997
   8.27528457 15.89140457  7.41448786
   8.26835735 22.07591119  7.41107194
  13.98488134  2.59959083  7.37098480
  13.98636298  9.16812590  7.36597066
  13.99248208 15.70836136  7.36707735
  13.98641555 22.28967453  7.37103917
  19.67408457  2.60493173  7.38136326
  19.74796539  9.19873602  7.34324569
  19.69899864 15.66431404  7.38941971
  19.70461322 22.28534239  7.37900818
   7.42172694  5.88239032  9.06494269
   7.63971817 12.43506604  9.06386535
   7.42516710 18.98466730  9.06483681
   7.69811624 25.56172841  9.06496669
  14.01283835  5.88736670  7.37861178
  13.95342425 12.43537787  7.38552642
  14.01706313 18.99354575  7.37929385
  13.95282256 25.56866995  7.38908365
  19.69704924  5.93935923  7.38886203
  19.74626075 12.40706228  7.34378185
  19.68530845 18.99633704  7.38169582
  19.70237238 25.57955289  7.37896855
  11.06569440  0.95805720  7.38152182
  11.16055586  7.50448466  7.33456832
  11.06836688 14.07916821  7.38211772
  11.16602166 20.61807504  7.33229502
  16.82849524  0.95411838  7.37960498
  16.84981860  7.54763855  7.37422442
  16.83783676 14.05492211  7.37518054
  16.84509732 20.64797866  7.37860040
  22.62229045  0.97505634  7.45937394
  22.71378123  7.56275861  7.40936667
  22.71218361 14.04422557  7.41136862
  22.62441268 20.63508417  7.45881254
  11.16223709  4.25840267  7.33150453
  11.06652581 10.79370461  7.38147105
  11.16619702 17.36951959  7.33457494
  11.06581937 23.91973241  7.38056673
  16.84498481  4.25274463  7.37312493
  16.83777858 10.80410440  7.37902922
  16.85196393 17.34407654  7.37336812
  16.83945113 23.93216341  7.37659030
  22.44513368  4.22340944  7.24159922
  24.24977191 10.80066539  7.29486724
  22.45449882 17.37866458  7.24249270
  22.53408728 23.93346997  7.28941144
  25.54774448 23.93705593  9.06472147
  25.29443536 20.53180459  9.06560725
  25.43474554 17.04337123  9.06525933
  25.43141252  4.59046623  9.06498598
  25.29429891  1.08841206  9.06506331
  26.33441351 13.57254845  9.06633095
  27.85723606 11.77809832  9.06674948
  27.09254134 12.67009646  9.06652241
 


--------------------------------------------------------------------------------------------------------


 k-point   1 :   0.0000 0.0000 0.0000  plane waves:  423045

 maximum and minimum number of plane-waves per node :    423045   423045

 maximum number of plane-waves:    423045
 maximum index in each direction: 
   IXMAX=   61   IYMAX=   48   IZMAX=   33
   IXMIN=  -61   IYMIN=  -48   IZMIN=  -33


 serial   3D FFT for wavefunctions
 parallel 3D FFT for charge:
    minimum data exchange during FFTs selected (reduces bandwidth)


 total amount of memory used by VASP MPI-rank0  4330453. kBytes
=======================================================================

   base      :      30000. kBytes
   nonlr-proj:     104212. kBytes
   fftplans  :     213060. kBytes
   grid      :    1080416. kBytes
   one-center:       4603. kBytes
   wavefun   :    2898162. kBytes
 
     INWAV:  cpu time      0.0001: real time      0.0003
 Broyden mixing: mesh for mixing (old mesh)
   NGX =123   NGY = 97   NGZ = 67
  (NGX  =500   NGY  =392   NGZ  =280)
  gives a total of 799377 points

 initial charge density was supplied:
 charge density of overlapping atoms calculated
 number of electron    1174.0000000 magnetization       8.8800000
 keeping initial charge density in first step


--------------------------------------------------------------------------------------------------------


 Maximum index for non-local projection operator          6425
 Maximum index for augmentation-charges          2472 (set IRDMAX)


--------------------------------------------------------------------------------------------------------


 First call to EWALD:  gamma=   0.071
 Maximum number of real-space cells 2x 3x 4
 Maximum number of reciprocal cells 3x 3x 2

    FEWALD:  cpu time      0.0348: real time      0.0349


--------------------------------------- Iteration      1(   1)  ---------------------------------------


    POTLOK:  cpu time      0.8149: real time      0.5916
    SETDIJ:  cpu time      0.1707: real time      0.1709
    TRIAL :  cpu time     12.6658: real time     10.0256
    CORREC:  cpu time      0.0095: real time      0.0095
    --------------------------------------------
      LOOP:  cpu time     14.4518: real time     11.5884

 eigenvalue-minimisations  :  3440
 total energy-change (2. order) : 0.9580156E+04  (-0.4765806E+05)
 number of electron    1174.0000000 magnetization       8.8800000
 augmentation part     1174.0000000 magnetization       8.8800000

 Free energy of the ion-electron system (eV)
  ---------------------------------------------------
  alpha Z        PSCENC =       961.99832726
  Ewald energy   TEWEN  =    280785.17111395
  -Hartree energ DENC   =   -353299.54872603
  -exchange      EXHF   =         0.00000000
  -V(xc)+E(xc)   XCENC  =      1701.43101203
  PAW double counting   =     69368.52081394   -67446.56647496
  entropy T*S    EENTRO =        -0.12820090
  eigenvalues    EBANDS =     -8998.68513485
  atomic energy  EATOM  =     86507.96278303
  ---------------------------------------------------
  free energy    TOTEN  =      9580.15551349 eV

  energy without entropy =     9580.28371438  energy(sigma->0) =     9580.21961393


--------------------------------------------------------------------------------------------------------




--------------------------------------- Iteration      1(   2)  ---------------------------------------


    TRIAL :  cpu time     13.8294: real time     10.8327
    CORREC:  cpu time      0.0088: real time      0.0088
    --------------------------------------------
      LOOP:  cpu time     13.8392: real time     10.8430

 eigenvalue-minimisations  :  4140
 total energy-change (2. order) :-0.9046411E+04  (-0.8760634E+04)
 number of electron    1174.0000000 magnetization       8.8800000
 augmentation part     1174.0000000 magnetization       8.8800000

 Free energy of the ion-electron system (eV)
  ---------------------------------------------------
  alpha Z        PSCENC =       961.99832726
  Ewald energy   TEWEN  =    280785.17111395
  -Hartree energ DENC   =   -353299.54872603
  -exchange      EXHF   =         0.00000000
  -V(xc)+E(xc)   XCENC  =      1701.43101203
  PAW double counting   =     69368.52081394   -67446.56647496
  entropy T*S    EENTRO =        -0.03333439
  eigenvalues    EBANDS =    -18045.19057374
  atomic energy  EATOM  =     86507.96278303
  ---------------------------------------------------
  free energy    TOTEN  =       533.74494111 eV

  energy without entropy =      533.77827550  energy(sigma->0) =      533.76160830


--------------------------------------------------------------------------------------------------------




--------------------------------------- Iteration      1(   3)  ---------------------------------------


    TRIAL :  cpu time     11.8161: real time      9.2325
    CORREC:  cpu time      0.0077: real time      0.0077
    --------------------------------------------
      LOOP:  cpu time     11.8247: real time      9.2414

 eigenvalue-minimisations  :  3370
 total energy-change (2. order) :-0.1564016E+04  (-0.1554198E+04)
 number of electron    1174.0000000 magnetization       8.8800000
 augmentation part     1174.0000000 magnetization       8.8800000

 Free energy of the ion-electron system (eV)
  ---------------------------------------------------
  alpha Z        PSCENC =       961.99832726
  Ewald energy   TEWEN  =    280785.17111395
  -Hartree energ DENC   =   -353299.54872603
  -exchange      EXHF   =         0.00000000
  -V(xc)+E(xc)   XCENC  =      1701.43101203
  PAW double counting   =     69368.52081394   -67446.56647496
  entropy T*S    EENTRO =        -0.00306351
  eigenvalues    EBANDS =    -19609.23698708
  atomic energy  EATOM  =     86507.96278303
  ---------------------------------------------------
  free energy    TOTEN  =     -1030.27120135 eV

  energy without entropy =    -1030.26813784  energy(sigma->0) =    -1030.26966960


--------------------------------------------------------------------------------------------------------




--------------------------------------- Iteration      1(   4)  ---------------------------------------


    TRIAL :  cpu time     11.8405: real time      9.2441
    CORREC:  cpu time      0.0085: real time      0.0085
    --------------------------------------------
      LOOP:  cpu time     11.8502: real time      9.2540

 eigenvalue-minimisations  :  3370
 total energy-change (2. order) :-0.6673837E+02  (-0.6596970E+02)
 number of electron    1174.0000000 magnetization       8.8800000
 augmentation part     1174.0000000 magnetization       8.8800000

 Free energy of the ion-electron system (eV)
  ---------------------------------------------------
  alpha Z        PSCENC =       961.99832726
  Ewald energy   TEWEN  =    280785.17111395
  -Hartree energ DENC   =   -353299.54872603
  -exchange      EXHF   =         0.00000000
  -V(xc)+E(xc)   XCENC  =      1701.43101203
  PAW double counting   =     69368.52081394   -67446.56647496
  entropy T*S    EENTRO =        -0.00332156
  eigenvalues    EBANDS =    -19675.97509649
  atomic energy  EATOM  =     86507.96278303
  ---------------------------------------------------
  free energy    TOTEN  =     -1097.00956882 eV

  energy without entropy =    -1097.00624725  energy(sigma->0) =    -1097.00790803


--------------------------------------------------------------------------------------------------------




--------------------------------------- Iteration      1(   5)  ---------------------------------------


    TRIAL :  cpu time     13.5962: real time     10.6670
    CORREC:  cpu time      0.0079: real time      0.0079
    CHARGE:  cpu time      4.6435: real time      4.6518
    --------------------------------------------
      LOOP:  cpu time     18.2488: real time     15.3282

 eigenvalue-minimisations  :  4080
 total energy-change (2. order) :-0.2655891E+01  (-0.2644503E+01)
 number of electron    1174.0000131 magnetization       0.0328331
 augmentation part       74.3770863 magnetization      -0.0197420

 Free energy of the ion-electron system (eV)
  ---------------------------------------------------
  alpha Z        PSCENC =       961.99832726
  Ewald energy   TEWEN  =    280785.17111395
  -Hartree energ DENC   =   -353299.54872603
  -exchange      EXHF   =         0.00000000
  -V(xc)+E(xc)   XCENC  =      1701.43101203
  PAW double counting   =     69368.52081394   -67446.56647496
  entropy T*S    EENTRO =        -0.00332061
  eigenvalues    EBANDS =    -19678.63098857
  atomic energy  EATOM  =     86507.96278303
  ---------------------------------------------------
  free energy    TOTEN  =     -1099.66545995 eV

  energy without entropy =    -1099.66213934  energy(sigma->0) =    -1099.66379964


--------------------------------------------------------------------------------------------------------




--------------------------------------- Iteration      1(   6)  ---------------------------------------


    POTLOK:  cpu time      0.7200: real time      0.4693
    SETDIJ:  cpu time      0.1736: real time      0.1739
[...]
   -.284E+03 0.109E+01 0.695E+03   0.284E+03 -.118E+01 -.697E+03   0.207E-01 0.932E-01 0.262E+01
   -.300E+03 0.860E+00 0.707E+03   0.300E+03 -.894E+00 -.710E+03   -.136E+00 0.243E-01 0.259E+01
   -.281E+03 0.756E+01 0.694E+03   0.281E+03 -.758E+01 -.696E+03   -.240E-01 0.201E-01 0.258E+01
   -.285E+03 -.113E+01 0.695E+03   0.285E+03 0.108E+01 -.698E+03   -.610E-02 0.521E-01 0.261E+01
   0.953E+03 0.214E+01 0.122E-01   -.954E+03 -.210E+01 -.124E-01   0.127E+01 -.467E-01 0.798E-04
   0.904E+03 -.116E+00 0.166E+00   -.905E+03 0.118E+00 -.166E+00   0.127E+01 0.130E-03 0.166E-02
   0.952E+03 -.210E+01 -.258E-01   -.954E+03 0.206E+01 0.256E-01   0.127E+01 0.458E-01 -.928E-05
   0.902E+03 -.313E+00 -.291E-01   -.903E+03 0.313E+00 0.290E-01   0.120E+01 -.111E-02 0.230E-03
   0.195E+03 0.818E+00 0.707E+03   -.195E+03 -.828E+00 -.709E+03   0.186E-01 0.108E-01 0.260E+01
   0.215E+03 0.477E+00 0.699E+03   -.215E+03 -.474E+00 -.702E+03   -.367E-01 -.247E-02 0.261E+01
   0.196E+03 -.135E+01 0.706E+03   -.196E+03 0.136E+01 -.709E+03   0.178E-01 -.175E-01 0.261E+01
   0.216E+03 -.437E+00 0.697E+03   -.216E+03 0.438E+00 -.699E+03   -.443E-01 -.456E-03 0.263E+01
   -.291E+03 -.710E+01 0.692E+03   0.291E+03 0.710E+01 -.695E+03   -.254E-01 -.460E-02 0.258E+01
   -.293E+03 0.792E+01 0.708E+03   0.293E+03 -.788E+01 -.711E+03   -.138E+00 -.301E-01 0.258E+01
   -.281E+03 -.488E+01 0.696E+03   0.281E+03 0.498E+01 -.698E+03   0.282E-01 -.949E-01 0.262E+01
   -.286E+03 -.418E+01 0.695E+03   0.286E+03 0.422E+01 -.698E+03   -.736E-02 -.500E-01 0.261E+01
   0.499E+03 0.336E+02 0.646E+03   -.500E+03 -.336E+02 -.648E+03   0.422E+00 0.660E-01 0.244E+01
   0.470E+03 -.616E+01 0.681E+03   -.471E+03 0.607E+01 -.683E+03   0.413E+00 0.107E+00 0.223E+01
   0.498E+03 0.305E+02 0.648E+03   -.498E+03 -.305E+02 -.650E+03   0.414E+00 0.594E-01 0.241E+01
   0.469E+03 -.888E+01 0.681E+03   -.470E+03 0.880E+01 -.683E+03   0.425E+00 0.906E-01 0.222E+01
   -.353E+02 0.191E+01 0.712E+03   0.353E+02 -.193E+01 -.715E+03   -.102E-01 0.223E-01 0.260E+01
   -.440E+02 -.874E+00 0.715E+03   0.440E+02 0.872E+00 -.717E+03   -.613E-02 0.399E-02 0.260E+01
   -.363E+02 0.462E+01 0.714E+03   0.363E+02 -.462E+01 -.716E+03   -.153E-01 -.137E-02 0.261E+01
   -.388E+02 -.289E+01 0.714E+03   0.388E+02 0.291E+01 -.716E+03   -.768E-02 -.202E-01 0.260E+01
   -.602E+03 -.250E+01 0.594E+03   0.602E+03 0.240E+01 -.597E+03   -.216E-01 0.106E+00 0.291E+01
   -.658E+03 -.307E+01 0.574E+03   0.659E+03 0.313E+01 -.577E+03   -.253E+00 -.590E-01 0.278E+01
   -.620E+03 0.891E+01 0.589E+03   0.621E+03 -.896E+01 -.592E+03   -.260E+00 0.569E-01 0.277E+01
   -.598E+03 -.670E+01 0.596E+03   0.598E+03 0.679E+01 -.598E+03   -.237E-01 -.966E-01 0.290E+01
   0.469E+03 0.845E+01 0.681E+03   -.470E+03 -.837E+01 -.684E+03   0.427E+00 -.922E-01 0.222E+01
   0.498E+03 -.302E+02 0.648E+03   -.499E+03 0.302E+02 -.650E+03   0.421E+00 -.603E-01 0.241E+01
   0.470E+03 0.628E+01 0.681E+03   -.470E+03 -.619E+01 -.683E+03   0.414E+00 -.106E+00 0.223E+01
   0.500E+03 -.343E+02 0.646E+03   -.500E+03 0.343E+02 -.648E+03   0.422E+00 -.610E-01 0.244E+01
   -.423E+02 -.268E+00 0.715E+03   0.423E+02 0.234E+00 -.718E+03   -.248E-01 0.375E-01 0.258E+01
   -.378E+02 -.112E+00 0.714E+03   0.378E+02 0.116E+00 -.716E+03   0.459E-03 -.562E-02 0.258E+01
   -.397E+02 0.944E+00 0.716E+03   0.397E+02 -.923E+00 -.718E+03   -.169E-01 -.236E-01 0.258E+01
   -.347E+02 -.366E+01 0.713E+03   0.348E+02 0.366E+01 -.715E+03   -.331E-01 -.329E-02 0.260E+01
   -.571E+03 -.665E+01 0.676E+03   0.571E+03 0.655E+01 -.678E+03   -.228E+00 0.122E+00 0.216E+01
   -.757E+03 0.426E+02 0.505E+03   0.758E+03 -.426E+02 -.506E+03   -.613E+00 0.806E-02 0.130E+01
   -.557E+03 -.376E+01 0.681E+03   0.557E+03 0.387E+01 -.683E+03   -.223E+00 -.127E+00 0.217E+01
   -.562E+03 -.399E+01 0.663E+03   0.562E+03 0.399E+01 -.665E+03   -.146E+00 0.279E-02 0.220E+01
   -.943E+03 -.547E+01 0.609E-01   0.944E+03 0.548E+01 -.608E-01   -.159E+01 -.105E-01 0.490E-03
   -.915E+03 -.745E+01 -.132E+00   0.918E+03 0.712E+01 0.132E+00   -.248E+01 0.359E+00 -.610E-04
   -.927E+03 -.879E+01 0.129E-02   0.928E+03 0.809E+01 -.142E-02   -.102E+01 0.817E+00 -.471E-03
   -.944E+03 -.410E+02 0.118E-01   0.945E+03 0.416E+02 -.118E-01   -.101E+01 -.775E+00 0.242E-04
   -.918E+03 -.730E+01 0.334E-02   0.920E+03 0.765E+01 -.339E-02   -.247E+01 -.389E+00 -.700E-04
   -.553E+03 -.194E+03 -.108E+00   0.513E+03 0.242E+03 0.941E-01   0.402E+02 -.483E+02 0.142E-01
   -.711E+03 0.213E+03 -.144E+00   0.753E+03 -.261E+03 0.151E+00   -.415E+02 0.488E+02 -.686E-02
   -.417E+03 -.206E+00 -.114E+00   0.417E+03 0.141E+00 0.114E+00   0.531E-01 0.115E+00 0.315E-04
 -----------------------------------------------------------------------------------------------
   -.985E+01 -.742E+00 -.983E-02   0.705E-11 0.199E-12 -.238E-11   0.972E+01 0.736E+00 0.493E-02
 
 
 POSITION                                       TOTAL-FORCE (eV/Angst)
 -----------------------------------------------------------------------------------
      9.20451      1.23361      9.06500        -0.001141     -0.000145     -0.000908
      9.37989      7.33307      9.06496        -0.000833      0.001487     -0.001099
      9.20466     14.31725      9.06475        -0.002767     -0.003063     -0.000428
      9.38934     20.43967      9.06455        -0.000118      0.002831     -0.000703
     14.92284      0.96146      9.06504         0.001723      0.002949      0.000129
     14.95039      7.54064      9.06519         0.000247      0.000075      0.001337
     14.93308     14.07359      9.06509        -0.001714      0.001570     -0.000264
     14.94581     20.65040      9.06495        -0.000471     -0.003312     -0.000133
     20.62585      0.97107      9.06509         0.000298      0.000850     -0.000218
     20.67000      7.58165      9.06514         0.003113      0.003770     -0.000324
     20.66906     14.02239      9.06495         0.004502     -0.003505     -0.000463
     20.62955     20.63658      9.06501         0.000148     -0.001548      0.001274
      9.38652      4.43096      9.06502         0.001585      0.000850     -0.000627
      9.20272     10.55369      9.06442        -0.001852      0.000880     -0.000580
      9.38506     17.53709      9.06453         0.000051      0.005675      0.000694
      9.20554     23.63576      9.06479        -0.000525     -0.005609      0.000115
     14.94909      4.23881      9.06512         0.002575      0.002230     -0.000073
     14.93035     10.79662      9.06514         0.000299      0.000877     -0.000498
     14.95459     17.33968      9.06494        -0.001142      0.000507     -0.000433
     14.93117     23.92460      9.06503         0.001122     -0.002482     -0.000577
     20.63709      4.26757      9.06512        -0.001447      0.002733      0.000302
     20.67257     10.80238      9.06499         0.001770     -0.003965      0.000499
     20.64545     17.33381      9.06496        -0.000055     -0.001365      0.000187
     20.66037     23.93305      9.06507        -0.000693      0.000450     -0.000287
     12.10243      5.88151      9.06513        -0.000027      0.002204     -0.000067
     12.03657     12.43599      9.06504        -0.001324     -0.000318      0.000013
     12.10558     18.99452      9.06470        -0.003251      0.001657      0.001320
     12.03232     25.56708      9.06493        -0.002754     -0.000598      0.001269
     17.79063      5.90514      9.06519         0.001573      0.000045      0.000639
     17.81142     12.42534      9.06510         0.003279      0.001306      0.000977
     17.78676     18.99195      9.06498         0.003190     -0.000467      0.000567
     17.79295     25.57135      9.06510         0.000398     -0.000120      0.000314
     23.30982      5.67822      9.06503        -0.003191     -0.000545     -0.000808
     23.04033     12.06199      9.06474        -0.000253     -0.005032     -0.000412
     23.48660     18.77293      9.06510        -0.000876     -0.002566     -0.000369
     23.53745     25.38498      9.06499         0.000975     -0.001601      0.000465
     12.09310      2.61183      9.06505        -0.000480      0.000361      0.000578
     12.10028      9.14926      9.06503         0.000416     -0.000846      0.000291
     12.10467     15.72459      9.06479         0.000906      0.001416     -0.000564
     12.09436     22.26912      9.06480        -0.003104     -0.003688      0.000256
     17.77581      2.60729      9.06514         0.001291      0.002991     -0.000192
     17.81466      9.18112      9.06523         0.002815     -0.004246     -0.001076
     17.79049     15.69331      9.06503         0.001297      0.002412     -0.000081
     17.79779     22.29212      9.06509         0.001410     -0.002171     -0.000399
     23.48306      2.83621      9.06502         0.001588     -0.000350     -0.000049
     23.03743      9.54587      9.06479        -0.001139      0.001648     -0.000624
     23.32410     15.92699      9.06497        -0.003326      0.002444      0.000395
     23.53833     22.48311      9.06510        -0.001429      0.001173     -0.000405
      8.26727      2.79220     10.71837        -0.001116      0.001404      0.001782
      8.26971      8.97939     10.71363         0.001501      0.002147     -0.001692
      8.27508     15.89203     10.71459         0.000529     -0.001020      0.001178
      8.26835     22.07543     10.71808         0.001302     -0.000329     -0.001741
     13.98469      2.59934     10.75894         0.000478      0.001207      0.001393
     13.98669      9.16830     10.76409        -0.000782     -0.000666     -0.000392
     13.99236     15.70851     10.76274        -0.000355      0.000720      0.000376
     13.98625     22.28977     10.75884        -0.000226     -0.000722      0.000794
     19.67436      2.60506     10.74893        -0.000454      0.000130      0.000837
     19.74805      9.19872     10.78726         0.000326     -0.001914     -0.000219
     19.69913     15.66398     10.74054        -0.000143      0.001724      0.002731
     19.70470     22.28531     10.75105         0.000335     -0.000331      0.000469
     14.01308      5.88720     10.75166        -0.000231     -0.000504     -0.001095
     13.95361     12.43564     10.74466        -0.000923      0.000442     -0.000031
     14.01677     18.99354     10.75046        -0.000352     -0.000069     -0.001479
     13.95244     25.56868     10.74087         0.000733      0.001022      0.002192
     19.69742      5.93961     10.74144        -0.000674     -0.001815      0.001635
     19.74656     12.40704     10.78654         0.000075      0.000979     -0.000298
     19.68563     18.99611     10.74843        -0.000693      0.001435      0.000486
     19.70242     25.57971     10.75117         0.000183     -0.000286      0.001161
     11.06556      0.95777     10.74832        -0.000184      0.001187      0.003174
     11.16031      7.50438     10.79532         0.001261      0.001070      0.000259
     11.06806     14.07952     10.74752         0.001199      0.000159      0.001225
     11.16593     20.61824     10.79698        -0.001399     -0.000872     -0.001155
     16.82845      0.95411     10.75042         0.001050      0.000743      0.001453
     16.85025      7.54766     10.75616         0.000682     -0.000760      0.000256
     16.83826     14.05505     10.75485        -0.001090      0.000251      0.002517
     16.84520     20.64784     10.75141        -0.000117      0.000040     -0.000131
     22.62230      0.97508     10.67065         0.000301     -0.000351      0.000680
     22.71389      7.56296     10.72089        -0.000684     -0.001435     -0.000866
     22.71231     14.04409     10.71863        -0.000455      0.000818     -0.000503
     22.62424     20.63495     10.67112        -0.000413      0.000460      0.001328
     11.16226      4.25794     10.79830         0.000014      0.001241     -0.000542
     11.06590     10.79377     10.74798         0.001662      0.001556     -0.001915
     11.16574     17.36960     10.79466         0.000257     -0.000482      0.000761
     11.06583     23.91989     10.74912        -0.001419     -0.001187      0.001107
     16.84541      4.25270     10.75706        -0.000843     -0.000461      0.000314
     16.83840     10.80418     10.75125        -0.001192     -0.001772      0.000639
     16.85234     17.34401     10.75650        -0.000128      0.001228      0.000829
     16.83933     23.93209     10.75357         0.001198      0.000566      0.001028
     22.44502      4.22320     10.88857         0.000609      0.000508      0.000555
     24.25035     10.80075     10.83426        -0.000427     -0.001141     -0.000387
     22.45414     17.37855     10.88752         0.000881     -0.000122     -0.000769
     22.53403     23.93360     10.84083         0.000473     -0.000197     -0.000283
      8.26753      2.79203      7.41131        -0.000611      0.001244     -0.001614
      8.27070      8.97918      7.41505         0.001614      0.002100      0.001472
      8.27533     15.89180      7.41459         0.000195     -0.000883     -0.000580
      8.26837     22.07600      7.41101         0.001284      0.000020      0.001899
     13.98469      2.59939      7.37119         0.000845      0.001390     -0.001663
     13.98685      9.16823      7.36617        -0.000981     -0.000477      0.000011
     13.99272     15.70831      7.36708        -0.000419      0.000851     -0.000047
     13.98640     22.28985      7.37102         0.001178      0.000120     -0.000386
     19.67424      2.60511      7.38132        -0.000107      0.000013     -0.000370
     19.74793      9.19862      7.34288         0.000626     -0.001710      0.001066
     19.69904     15.66401      7.38940        -0.000219      0.002234     -0.002255
     19.70472     22.28531      7.37907        -0.000185      0.000006     -0.000830
      7.42168      5.88229      9.06493         0.000206      0.002100     -0.000099
      7.63915     12.43511      9.06407         0.002449      0.001525      0.001312
      7.42511     18.98462      9.06481         0.002055     -0.000850     -0.000117
      7.69812     25.56181      9.06498        -0.001936     -0.000919      0.000138
     14.01318      5.88736      7.37873        -0.000753     -0.000475      0.001030
     13.95376     12.43562      7.38552        -0.000610      0.000176      0.000515
     14.01696     18.99356      7.37935        -0.000528     -0.000194      0.001249
     13.95253     25.56872      7.38913         0.001153      0.000578     -0.002043
     19.69730      5.93965      7.38900        -0.001003     -0.001609     -0.001903
     19.74622     12.40701      7.34355        -0.000748      0.000974     -0.001354
     19.68568     18.99617      7.38157        -0.001028      0.001137     -0.000878
     19.70239     25.57974      7.37897         0.000281     -0.000336     -0.001062
     11.06563      0.95780      7.38169        -0.000540      0.001561     -0.003123
     11.16045      7.50430      7.33476         0.001193      0.001008     -0.000410
     11.06824     14.07942      7.38227         0.001069     -0.000122     -0.001131
     11.16604     20.61827      7.33229        -0.001118     -0.001039      0.001372
     16.82854      0.95418      7.37975         0.000578      0.000210     -0.001577
     16.85028      7.54764      7.37424         0.000716     -0.000197     -0.000124
     16.83825     14.05493      7.37531        -0.001364      0.000657     -0.001566
     16.84528     20.64790      7.37862        -0.000107      0.000202     -0.000094
     22.62224      0.97510      7.45944         0.000291     -0.000545     -0.000989
     22.71377      7.56281      7.40906        -0.000875     -0.001144      0.000936
     22.71224     14.04422      7.41116         0.000204      0.001547      0.000408
     22.62434     20.63496      7.45899        -0.000214      0.000381     -0.001112
     11.16232      4.25798      7.33187        -0.000085      0.001301     -0.000207
     11.06668     10.79390      7.38178         0.002222      0.000342     -0.000210
     11.16603     17.36962      7.33462         0.000805     -0.000365     -0.001347
     11.06584     23.92003      7.38064        -0.001422     -0.001563     -0.001469
     16.84543      4.25276      7.37318        -0.000818     -0.000589     -0.000133
     16.83847     10.80398      7.37911        -0.001587     -0.000898     -0.001692
     16.85242     17.34396      7.37350        -0.000210      0.001282     -0.000998
     16.83946     23.93217      7.37667         0.001143      0.000440     -0.001146
     22.44492      4.22322      7.24150         0.000529      0.000374     -0.000157
     24.24971     10.80068      7.29472        -0.000897     -0.000646      0.001805
     22.45421     17.37861      7.24247         0.001017     -0.000060      0.001026
     22.53391     23.93353      7.28926         0.000938     -0.000267      0.000662
     25.54745     23.93688      9.06483         0.000759      0.000055      0.000570
     25.29402     20.53186      9.06561         0.001136      0.000476      0.000096
     25.43422     17.04342      9.06512         0.001868      0.001183     -0.000567
     25.43102      4.59065      9.06500         0.000738      0.000191      0.000025
     25.29397      1.08837      9.06502         0.000983     -0.000798     -0.000093
     26.33462     13.57270      9.06637         0.029978     -0.034783      0.000646
     27.85486     11.77649      9.06676         0.004472     -0.025595      0.000531
     27.09152     12.66891      9.06662        -0.047567      0.047933     -0.000047
 -----------------------------------------------------------------------------------
    total drift:                               -0.133653     -0.006058     -0.004900


--------------------------------------------------------------------------------------------------------



  FREE ENERGIE OF THE ION-ELECTRON SYSTEM (eV)
  ---------------------------------------------------
  free  energy   TOTEN  =     -1069.29896989 eV

  energy  without entropy=    -1069.26239255  energy(sigma->0) =    -1069.28068122
 
 d Force =-0.2418706E-04[-0.385E-04,-0.986E-05]  d Energy =-0.2615786E-04 0.197E-05
 d Force = 0.3683430E+00[ 0.368E+00, 0.368E+00]  d Ewald  = 0.3683430E+00-0.369E-09


--------------------------------------------------------------------------------------------------------


    POTLOK:  cpu time      1.0258: real time      0.7766


--------------------------------------------------------------------------------------------------------


 -----------------------------------------------------------------------------
|                                                                             |
|     EEEEEEE  RRRRRR   RRRRRR   OOOOOOO  RRRRRR      ###     ###     ###     |
|     E        R     R  R     R  O     O  R     R     ###     ###     ###     |
|     E        R     R  R     R  O     O  R     R     ###     ###     ###     |
|     EEEEE    RRRRRR   RRRRRR   O     O  RRRRRR       #       #       #      |
|     E        R   R    R   R    O     O  R   R                               |
|     E        R    R   R    R   O     O  R    R      ###     ###     ###     |
|     EEEEEEE  R     R  R     R  OOOOOOO  R     R     ###     ###     ###     |
|                                                                             |
|     ZBRENT: fatal error in bracketing                                       |
|      please rerun with smaller EDIFF, or copy CONTCAR                       |
|      to POSCAR and continue                                                 |
|                                                                             |
|       ---->  I REFUSE TO CONTINUE WITH THIS SICK JOB ... BYE!!! <----       |
|                                                                             |
 -----------------------------------------------------------------------------

